# vtk DataFile Version 2.0
Simplicial Mesh Example
ASCII
DATASET UNSTRUCTURED_GRID
POINTS 12999 double
4.900000e+04 6.000000e+02 0.0
4.905000e+04 4.960769e+02 0.0
4.910000e+04 6.000000e+02 0.0
4.770000e+04 6.000000e+02 0.0
4.775000e+04 4.960769e+02 0.0
4.780000e+04 6.000000e+02 0.0
4.640000e+04 6.000000e+02 0.0
4.645000e+04 4.960769e+02 0.0
4.650000e+04 6.000000e+02 0.0
4.510000e+04 6.000000e+02 0.0
4.515000e+04 4.960769e+02 0.0
4.520000e+04 6.000000e+02 0.0
4.380000e+04 6.000000e+02 0.0
4.385000e+04 4.960769e+02 0.0
4.390000e+04 6.000000e+02 0.0
4.250000e+04 6.000000e+02 0.0
4.255000e+04 4.960769e+02 0.0
4.260000e+04 6.000000e+02 0.0
4.120000e+04 6.000000e+02 0.0
4.125000e+04 4.960769e+02 0.0
4.130000e+04 6.000000e+02 0.0
3.990000e+04 6.000000e+02 0.0
3.995000e+04 4.960769e+02 0.0
4.000000e+04 6.000000e+02 0.0
3.860000e+04 6.000000e+02 0.0
3.865000e+04 4.960769e+02 0.0
3.870000e+04 6.000000e+02 0.0
3.730000e+04 6.000000e+02 0.0
3.735000e+04 4.960769e+02 0.0
3.740000e+04 6.000000e+02 0.0
3.600000e+04 6.000000e+02 0.0
3.605000e+04 4.960769e+02 0.0
3.610000e+04 6.000000e+02 0.0
3.460000e+04 6.000000e+02 0.0
3.465000e+04 4.960769e+02 0.0
3.470000e+04 6.000000e+02 0.0
3.330000e+04 6.000000e+02 0.0
3.335000e+04 4.960769e+02 0.0
3.340000e+04 6.000000e+02 0.0
3.200000e+04 6.000000e+02 0.0
3.205000e+04 4.960769e+02 0.0
3.210000e+04 6.000000e+02 0.0
3.060000e+04 6.000000e+02 0.0
3.065000e+04 4.960769e+02 0.0
3.070000e+04 6.000000e+02 0.0
2.930000e+04 6.000000e+02 0.0
2.935000e+04 4.960769e+02 0.0
2.940000e+04 6.000000e+02 0.0
2.800000e+04 6.000000e+02 0.0
2.805000e+04 4.960769e+02 0.0
2.810000e+04 6.000000e+02 0.0
2.660000e+04 6.000000e+02 0.0
2.665000e+04 4.960769e+02 0.0
2.670000e+04 6.000000e+02 0.0
2.520000e+04 6.000000e+02 0.0
2.525000e+04 4.960769e+02 0.0
2.530000e+04 6.000000e+02 0.0
2.390000e+04 6.000000e+02 0.0
2.395000e+04 4.960769e+02 0.0
2.400000e+04 6.000000e+02 0.0
2.250000e+04 6.000000e+02 0.0
2.255000e+04 4.960769e+02 0.0
2.260000e+04 6.000000e+02 0.0
2.110000e+04 6.000000e+02 0.0
2.115000e+04 4.960769e+02 0.0
2.120000e+04 6.000000e+02 0.0
1.980000e+04 6.000000e+02 0.0
1.985000e+04 4.960769e+02 0.0
1.990000e+04 6.000000e+02 0.0
1.840000e+04 6.000000e+02 0.0
1.845000e+04 4.960769e+02 0.0
1.850000e+04 6.000000e+02 0.0
1.700000e+04 6.000000e+02 0.0
1.705000e+04 4.960769e+02 0.0
1.710000e+04 6.000000e+02 0.0
1.560000e+04 6.000000e+02 0.0
1.565000e+04 4.960769e+02 0.0
1.570000e+04 6.000000e+02 0.0
1.420000e+04 6.000000e+02 0.0
1.425000e+04 4.960769e+02 0.0
1.430000e+04 6.000000e+02 0.0
1.270000e+04 6.000000e+02 0.0
1.275000e+04 4.960769e+02 0.0
1.280000e+04 6.000000e+02 0.0
1.130000e+04 6.000000e+02 0.0
1.135000e+04 4.960769e+02 0.0
1.140000e+04 6.000000e+02 0.0
9.900000e+03 6.000000e+02 0.0
9.950000e+03 4.960769e+02 0.0
1.000000e+04 6.000000e+02 0.0
8.500000e+03 6.000000e+02 0.0
8.550000e+03 4.960769e+02 0.0
8.600000e+03 6.000000e+02 0.0
7.000000e+03 6.000000e+02 0.0
7.050000e+03 4.960769e+02 0.0
7.100000e+03 6.000000e+02 0.0
5.600000e+03 6.000000e+02 0.0
5.650000e+03 4.960769e+02 0.0
5.700000e+03 6.000000e+02 0.0
4.100000e+03 6.000000e+02 0.0
4.150000e+03 4.960769e+02 0.0
4.200000e+03 6.000000e+02 0.0
2.600000e+03 6.000000e+02 0.0
2.650000e+03 4.960769e+02 0.0
2.700000e+03 6.000000e+02 0.0
1.100000e+03 6.000000e+02 0.0
1.150000e+03 4.960769e+02 0.0
1.200000e+03 6.000000e+02 0.0
-3.000000e+02 6.000000e+02 0.0
-2.500000e+02 4.960769e+02 0.0
-2.000000e+02 6.000000e+02 0.0
-1.800000e+03 6.000000e+02 0.0
-1.750000e+03 4.960769e+02 0.0
-1.700000e+03 6.000000e+02 0.0
-3.400000e+03 6.000000e+02 0.0
-3.350000e+03 4.960769e+02 0.0
-3.300000e+03 6.000000e+02 0.0
-4.900000e+03 6.000000e+02 0.0
-4.850000e+03 4.960769e+02 0.0
-4.800000e+03 6.000000e+02 0.0
-6.400000e+03 6.000000e+02 0.0
-6.350000e+03 4.960769e+02 0.0
-6.300000e+03 6.000000e+02 0.0
-8.000000e+03 6.000000e+02 0.0
-7.950000e+03 4.960769e+02 0.0
-7.900000e+03 6.000000e+02 0.0
-9.500000e+03 6.000000e+02 0.0
-9.450000e+03 4.960769e+02 0.0
-9.400000e+03 6.000000e+02 0.0
-1.110000e+04 6.000000e+02 0.0
-1.105000e+04 4.960769e+02 0.0
-1.100000e+04 6.000000e+02 0.0
-1.270000e+04 6.000000e+02 0.0
-1.265000e+04 4.960769e+02 0.0
-1.260000e+04 6.000000e+02 0.0
-1.430000e+04 6.000000e+02 0.0
-1.425000e+04 4.960769e+02 0.0
-1.420000e+04 6.000000e+02 0.0
-1.590000e+04 6.000000e+02 0.0
-1.585000e+04 4.960769e+02 0.0
-1.580000e+04 6.000000e+02 0.0
-1.750000e+04 6.000000e+02 0.0
-1.745000e+04 4.960769e+02 0.0
-1.740000e+04 6.000000e+02 0.0
-1.920000e+04 6.000000e+02 0.0
-1.915000e+04 4.960769e+02 0.0
-1.910000e+04 6.000000e+02 0.0
-2.080000e+04 6.000000e+02 0.0
-2.075000e+04 4.960769e+02 0.0
-2.070000e+04 6.000000e+02 0.0
-2.250000e+04 6.000000e+02 0.0
-2.245000e+04 4.960769e+02 0.0
-2.240000e+04 6.000000e+02 0.0
-2.420000e+04 6.000000e+02 0.0
-2.415000e+04 4.960769e+02 0.0
-2.410000e+04 6.000000e+02 0.0
-2.590000e+04 6.000000e+02 0.0
-2.585000e+04 4.960769e+02 0.0
-2.580000e+04 6.000000e+02 0.0
-2.770000e+04 6.000000e+02 0.0
-2.765000e+04 4.960769e+02 0.0
-2.760000e+04 6.000000e+02 0.0
-2.940000e+04 6.000000e+02 0.0
-2.935000e+04 4.960769e+02 0.0
-2.930000e+04 6.000000e+02 0.0
-3.120000e+04 6.000000e+02 0.0
-3.115000e+04 4.960769e+02 0.0
-3.110000e+04 6.000000e+02 0.0
-3.310000e+04 6.000000e+02 0.0
-3.305000e+04 4.960769e+02 0.0
-3.300000e+04 6.000000e+02 0.0
-3.490000e+04 6.000000e+02 0.0
-3.485000e+04 4.960769e+02 0.0
-3.480000e+04 6.000000e+02 0.0
-3.680000e+04 6.000000e+02 0.0
-3.675000e+04 4.960769e+02 0.0
-3.670000e+04 6.000000e+02 0.0
-3.760000e+04 6.000000e+02 0.0
-3.755000e+04 4.960769e+02 0.0
-3.750000e+04 6.000000e+02 0.0
-3.765000e+04 4.960769e+02 0.0
-3.775000e+04 4.960769e+02 0.0
-3.770000e+04 6.000000e+02 0.0
-3.785000e+04 4.960769e+02 0.0
-3.780000e+04 6.000000e+02 0.0
-3.795000e+04 4.960769e+02 0.0
-3.790000e+04 6.000000e+02 0.0
-3.805000e+04 4.960769e+02 0.0
-3.800000e+04 6.000000e+02 0.0
-3.825000e+04 4.960769e+02 0.0
-3.815000e+04 4.960769e+02 0.0
-3.820000e+04 6.000000e+02 0.0
-3.835000e+04 4.960769e+02 0.0
-3.830000e+04 6.000000e+02 0.0
-3.845000e+04 4.960769e+02 0.0
-3.840000e+04 6.000000e+02 0.0
-3.855000e+04 4.960769e+02 0.0
-3.850000e+04 6.000000e+02 0.0
-3.865000e+04 4.960769e+02 0.0
-3.860000e+04 6.000000e+02 0.0
-3.875000e+04 4.960769e+02 0.0
-3.870000e+04 6.000000e+02 0.0
-3.900000e+04 6.000000e+02 0.0
-3.895000e+04 4.960769e+02 0.0
-3.890000e+04 6.000000e+02 0.0
-3.905000e+04 4.960769e+02 0.0
-3.915000e+04 4.960769e+02 0.0
-3.910000e+04 6.000000e+02 0.0
-3.925000e+04 4.960769e+02 0.0
-3.920000e+04 6.000000e+02 0.0
-3.935000e+04 4.960769e+02 0.0
-3.930000e+04 6.000000e+02 0.0
-3.945000e+04 4.960769e+02 0.0
-3.940000e+04 6.000000e+02 0.0
-3.965000e+04 4.960769e+02 0.0
-3.955000e+04 4.960769e+02 0.0
-3.960000e+04 6.000000e+02 0.0
-3.975000e+04 4.960769e+02 0.0
-3.970000e+04 6.000000e+02 0.0
-3.985000e+04 4.960769e+02 0.0
-3.980000e+04 6.000000e+02 0.0
-3.995000e+04 4.960769e+02 0.0
-3.990000e+04 6.000000e+02 0.0
-4.005000e+04 4.960769e+02 0.0
-4.000000e+04 6.000000e+02 0.0
-4.015000e+04 4.960769e+02 0.0
-4.010000e+04 6.000000e+02 0.0
-4.025000e+04 4.960769e+02 0.0
-4.020000e+04 6.000000e+02 0.0
-4.050000e+04 6.000000e+02 0.0
-4.045000e+04 4.960769e+02 0.0
-4.040000e+04 6.000000e+02 0.0
-4.055000e+04 4.960769e+02 0.0
-4.065000e+04 4.960769e+02 0.0
-4.060000e+04 6.000000e+02 0.0
-4.075000e+04 4.960769e+02 0.0
-4.070000e+04 6.000000e+02 0.0
-4.085000e+04 4.960769e+02 0.0
-4.080000e+04 6.000000e+02 0.0
-4.095000e+04 4.960769e+02 0.0
-4.090000e+04 6.000000e+02 0.0
-4.105000e+04 4.960769e+02 0.0
-4.100000e+04 6.000000e+02 0.0
-4.115000e+04 4.960769e+02 0.0
-4.110000e+04 6.000000e+02 0.0
-4.135000e+04 4.960769e+02 0.0
-4.125000e+04 4.960769e+02 0.0
-4.130000e+04 6.000000e+02 0.0
-4.145000e+04 4.960769e+02 0.0
-4.140000e+04 6.000000e+02 0.0
-4.155000e+04 4.960769e+02 0.0
-4.150000e+04 6.000000e+02 0.0
-4.165000e+04 4.960769e+02 0.0
-4.160000e+04 6.000000e+02 0.0
-4.175000e+04 4.960769e+02 0.0
-4.170000e+04 6.000000e+02 0.0
-4.185000e+04 4.960769e+02 0.0
-4.180000e+04 6.000000e+02 0.0
-4.195000e+04 4.960769e+02 0.0
-4.190000e+04 6.000000e+02 0.0
-4.205000e+04 4.960769e+02 0.0
-4.200000e+04 6.000000e+02 0.0
-4.215000e+04 4.960769e+02 0.0
-4.210000e+04 6.000000e+02 0.0
-4.235000e+04 4.960769e+02 0.0
-4.225000e+04 4.960769e+02 0.0
-4.230000e+04 6.000000e+02 0.0
-4.245000e+04 4.960769e+02 0.0
-4.240000e+04 6.000000e+02 0.0
-4.255000e+04 4.960769e+02 0.0
-4.250000e+04 6.000000e+02 0.0
-4.265000e+04 4.960769e+02 0.0
-4.260000e+04 6.000000e+02 0.0
-4.275000e+04 4.960769e+02 0.0
-4.270000e+04 6.000000e+02 0.0
-4.285000e+04 4.960769e+02 0.0
-4.280000e+04 6.000000e+02 0.0
-4.295000e+04 4.960769e+02 0.0
-4.290000e+04 6.000000e+02 0.0
-4.305000e+04 4.960769e+02 0.0
-4.300000e+04 6.000000e+02 0.0
-4.315000e+04 4.960769e+02 0.0
-4.310000e+04 6.000000e+02 0.0
-4.335000e+04 4.960769e+02 0.0
-4.325000e+04 4.960769e+02 0.0
-4.330000e+04 6.000000e+02 0.0
-4.345000e+04 4.960769e+02 0.0
-4.340000e+04 6.000000e+02 0.0
-4.355000e+04 4.960769e+02 0.0
-4.350000e+04 6.000000e+02 0.0
-4.365000e+04 4.960769e+02 0.0
-4.360000e+04 6.000000e+02 0.0
-4.375000e+04 4.960769e+02 0.0
-4.370000e+04 6.000000e+02 0.0
-4.385000e+04 4.960769e+02 0.0
-4.380000e+04 6.000000e+02 0.0
-4.395000e+04 4.960769e+02 0.0
-4.390000e+04 6.000000e+02 0.0
-4.405000e+04 4.960769e+02 0.0
-4.400000e+04 6.000000e+02 0.0
-4.415000e+04 4.960769e+02 0.0
-4.410000e+04 6.000000e+02 0.0
-4.425000e+04 4.960769e+02 0.0
-4.420000e+04 6.000000e+02 0.0
-4.435000e+04 4.960769e+02 0.0
-4.430000e+04 6.000000e+02 0.0
-4.445000e+04 4.960769e+02 0.0
-4.440000e+04 6.000000e+02 0.0
-4.470000e+04 6.000000e+02 0.0
-4.465000e+04 4.960769e+02 0.0
-4.460000e+04 6.000000e+02 0.0
-4.475000e+04 4.960769e+02 0.0
-4.485000e+04 4.960769e+02 0.0
-4.480000e+04 6.000000e+02 0.0
-4.495000e+04 4.960769e+02 0.0
-4.490000e+04 6.000000e+02 0.0
-4.505000e+04 4.960769e+02 0.0
-4.500000e+04 6.000000e+02 0.0
-4.515000e+04 4.960769e+02 0.0
-4.510000e+04 6.000000e+02 0.0
-4.525000e+04 4.960769e+02 0.0
-4.520000e+04 6.000000e+02 0.0
[...]
POINT_DATA 12999
VECTORS displacement double
0.000000e+00 0.000000e+00 0.0
0.000000e+00 0.000000e+00 0.0
0.000000e+00 0.000000e+00 0.0
0.000000e+00 0.000000e+00 0.0
0.000000e+00 0.000000e+00 0.0
0.000000e+00 0.000000e+00 0.0
0.000000e+00 0.000000e+00 0.0
0.000000e+00 0.000000e+00 0.0
0.000000e+00 0.000000e+00 0.0
0.000000e+00 0.000000e+00 0.0
0.000000e+00 0.000000e+00 0.0
0.000000e+00 0.000000e+00 0.0
0.000000e+00 0.000000e+00 0.0
0.000000e+00 0.000000e+00 0.0
0.000000e+00 0.000000e+00 0.0
0.000000e+00 0.000000e+00 0.0
0.000000e+00 0.000000e+00 0.0
0.000000e+00 0.000000e+00 0.0
0.000000e+00 0.000000e+00 0.0
0.000000e+00 0.000000e+00 0.0
0.000000e+00 0.000000e+00 0.0
0.000000e+00 0.000000e+00 0.0
0.000000e+00 0.000000e+00 0.0
0.000000e+00 0.000000e+00 0.0
0.000000e+00 0.000000e+00 0.0
0.000000e+00 0.000000e+00 0.0
0.000000e+00 0.000000e+00 0.0
0.000000e+00 0.000000e+00 0.0
0.000000e+00 0.000000e+00 0.0
0.000000e+00 0.000000e+00 0.0
0.000000e+00 0.000000e+00 0.0
0.000000e+00 0.000000e+00 0.0
0.000000e+00 0.000000e+00 0.0
0.000000e+00 0.000000e+00 0.0
0.000000e+00 0.000000e+00 0.0
0.000000e+00 0.000000e+00 0.0
0.000000e+00 0.000000e+00 0.0
0.000000e+00 0.000000e+00 0.0
0.000000e+00 0.000000e+00 0.0
0.000000e+00 0.000000e+00 0.0
0.000000e+00 0.000000e+00 0.0
0.000000e+00 0.000000e+00 0.0
0.000000e+00 0.000000e+00 0.0
0.000000e+00 0.000000e+00 0.0
0.000000e+00 0.000000e+00 0.0
0.000000e+00 0.000000e+00 0.0
0.000000e+00 0.000000e+00 0.0
0.000000e+00 0.000000e+00 0.0
0.000000e+00 0.000000e+00 0.0
0.000000e+00 0.000000e+00 0.0
0.000000e+00 0.000000e+00 0.0
0.000000e+00 0.000000e+00 0.0
0.000000e+00 0.000000e+00 0.0
0.000000e+00 0.000000e+00 0.0
0.000000e+00 0.000000e+00 0.0
0.000000e+00 0.000000e+00 0.0
0.000000e+00 0.000000e+00 0.0
0.000000e+00 0.000000e+00 0.0
0.000000e+00 0.000000e+00 0.0
0.000000e+00 0.000000e+00 0.0
0.000000e+00 0.000000e+00 0.0
0.000000e+00 0.000000e+00 0.0
0.000000e+00 0.000000e+00 0.0
0.000000e+00 0.000000e+00 0.0
0.000000e+00 0.000000e+00 0.0
0.000000e+00 0.000000e+00 0.0
0.000000e+00 0.000000e+00 0.0
0.000000e+00 0.000000e+00 0.0
0.000000e+00 0.000000e+00 0.0
0.000000e+00 0.000000e+00 0.0
0.000000e+00 0.000000e+00 0.0
0.000000e+00 0.000000e+00 0.0
0.000000e+00 0.000000e+00 0.0
0.000000e+00 0.000000e+00 0.0
0.000000e+00 0.000000e+00 0.0
0.000000e+00 0.000000e+00 0.0
0.000000e+00 0.000000e+00 0.0
0.000000e+00 0.000000e+00 0.0
0.000000e+00 0.000000e+00 0.0
0.000000e+00 0.000000e+00 0.0
0.000000e+00 0.000000e+00 0.0
0.000000e+00 0.000000e+00 0.0
0.000000e+00 0.000000e+00 0.0
0.000000e+00 0.000000e+00 0.0
0.000000e+00 0.000000e+00 0.0
0.000000e+00 0.000000e+00 0.0
0.000000e+00 0.000000e+00 0.0
0.000000e+00 0.000000e+00 0.0
0.000000e+00 0.000000e+00 0.0
0.000000e+00 0.000000e+00 0.0
0.000000e+00 0.000000e+00 0.0
0.000000e+00 0.000000e+00 0.0
0.000000e+00 0.000000e+00 0.0
0.000000e+00 0.000000e+00 0.0
0.000000e+00 0.000000e+00 0.0
0.000000e+00 0.000000e+00 0.0
0.000000e+00 0.000000e+00 0.0
0.000000e+00 0.000000e+00 0.0
0.000000e+00 0.000000e+00 0.0
0.000000e+00 0.000000e+00 0.0
0.000000e+00 0.000000e+00 0.0
0.000000e+00 0.000000e+00 0.0
0.000000e+00 0.000000e+00 0.0
0.000000e+00 0.000000e+00 0.0
0.000000e+00 0.000000e+00 0.0
0.000000e+00 0.000000e+00 0.0
0.000000e+00 0.000000e+00 0.0
0.000000e+00 0.000000e+00 0.0
0.000000e+00 0.000000e+00 0.0
0.000000e+00 0.000000e+00 0.0
0.000000e+00 0.000000e+00 0.0
0.000000e+00 0.000000e+00 0.0
0.000000e+00 0.000000e+00 0.0
0.000000e+00 0.000000e+00 0.0
0.000000e+00 0.000000e+00 0.0
0.000000e+00 0.000000e+00 0.0
0.000000e+00 0.000000e+00 0.0
0.000000e+00 0.000000e+00 0.0
0.000000e+00 0.000000e+00 0.0
0.000000e+00 0.000000e+00 0.0
0.000000e+00 0.000000e+00 0.0
0.000000e+00 0.000000e+00 0.0
0.000000e+00 0.000000e+00 0.0
0.000000e+00 0.000000e+00 0.0
0.000000e+00 0.000000e+00 0.0
0.000000e+00 0.000000e+00 0.0
0.000000e+00 0.000000e+00 0.0
0.000000e+00 0.000000e+00 0.0
0.000000e+00 0.000000e+00 0.0
0.000000e+00 0.000000e+00 0.0
0.000000e+00 0.000000e+00 0.0
0.000000e+00 0.000000e+00 0.0
0.000000e+00 0.000000e+00 0.0
0.000000e+00 0.000000e+00 0.0
0.000000e+00 0.000000e+00 0.0
0.000000e+00 0.000000e+00 0.0
0.000000e+00 0.000000e+00 0.0
0.000000e+00 0.000000e+00 0.0
0.000000e+00 0.000000e+00 0.0
0.000000e+00 0.000000e+00 0.0
0.000000e+00 0.000000e+00 0.0
0.000000e+00 0.000000e+00 0.0
0.000000e+00 0.000000e+00 0.0
0.000000e+00 0.000000e+00 0.0
0.000000e+00 0.000000e+00 0.0
0.000000e+00 0.000000e+00 0.0
0.000000e+00 0.000000e+00 0.0
0.000000e+00 0.000000e+00 0.0
0.000000e+00 0.000000e+00 0.0
0.000000e+00 0.000000e+00 0.0
0.000000e+00 0.000000e+00 0.0
0.000000e+00 0.000000e+00 0.0
0.000000e+00 0.000000e+00 0.0
0.000000e+00 0.000000e+00 0.0
0.000000e+00 0.000000e+00 0.0
0.000000e+00 0.000000e+00 0.0
0.000000e+00 0.000000e+00 0.0
0.000000e+00 0.000000e+00 0.0
0.000000e+00 0.000000e+00 0.0
0.000000e+00 0.000000e+00 0.0
0.000000e+00 0.000000e+00 0.0
0.000000e+00 0.000000e+00 0.0
0.000000e+00 0.000000e+00 0.0
0.000000e+00 0.000000e+00 0.0
0.000000e+00 0.000000e+00 0.0
0.000000e+00 0.000000e+00 0.0
0.000000e+00 0.000000e+00 0.0
0.000000e+00 0.000000e+00 0.0
0.000000e+00 0.000000e+00 0.0
0.000000e+00 0.000000e+00 0.0
0.000000e+00 0.000000e+00 0.0
0.000000e+00 0.000000e+00 0.0
0.000000e+00 0.000000e+00 0.0
0.000000e+00 0.000000e+00 0.0
0.000000e+00 0.000000e+00 0.0
0.000000e+00 0.000000e+00 0.0
0.000000e+00 0.000000e+00 0.0
0.000000e+00 0.000000e+00 0.0
0.000000e+00 0.000000e+00 0.0
0.000000e+00 0.000000e+00 0.0
0.000000e+00 0.000000e+00 0.0
0.000000e+00 0.000000e+00 0.0
0.000000e+00 0.000000e+00 0.0
0.000000e+00 0.000000e+00 0.0
0.000000e+00 0.000000e+00 0.0
0.000000e+00 0.000000e+00 0.0
0.000000e+00 0.000000e+00 0.0
0.000000e+00 0.000000e+00 0.0
0.000000e+00 0.000000e+00 0.0
0.000000e+00 0.000000e+00 0.0
0.000000e+00 0.000000e+00 0.0
0.000000e+00 0.000000e+00 0.0
0.000000e+00 0.000000e+00 0.0
0.000000e+00 0.000000e+00 0.0
0.000000e+00 0.000000e+00 0.0
0.000000e+00 0.000000e+00 0.0
0.000000e+00 0.000000e+00 0.0
0.000000e+00 0.000000e+00 0.0
0.000000e+00 0.000000e+00 0.0
0.000000e+00 0.000000e+00 0.0
0.000000e+00 0.000000e+00 0.0
0.000000e+00 0.000000e+00 0.0
0.000000e+00 0.000000e+00 0.0
0.000000e+00 0.000000e+00 0.0
0.000000e+00 0.000000e+00 0.0
0.000000e+00 0.000000e+00 0.0
0.000000e+00 0.000000e+00 0.0
0.000000e+00 0.000000e+00 0.0
0.000000e+00 0.000000e+00 0.0
0.000000e+00 0.000000e+00 0.0
0.000000e+00 0.000000e+00 0.0
0.000000e+00 0.000000e+00 0.0
0.000000e+00 0.000000e+00 0.0
0.000000e+00 0.000000e+00 0.0
0.000000e+00 0.000000e+00 0.0
0.000000e+00 0.000000e+00 0.0
0.000000e+00 0.000000e+00 0.0
0.000000e+00 0.000000e+00 0.0
0.000000e+00 0.000000e+00 0.0
0.000000e+00 0.000000e+00 0.0
0.000000e+00 0.000000e+00 0.0
0.000000e+00 0.000000e+00 0.0
0.000000e+00 0.000000e+00 0.0
0.000000e+00 0.000000e+00 0.0
0.000000e+00 0.000000e+00 0.0
0.000000e+00 0.000000e+00 0.0
0.000000e+00 0.000000e+00 0.0
0.000000e+00 0.000000e+00 0.0
0.000000e+00 0.000000e+00 0.0
0.000000e+00 0.000000e+00 0.0
0.000000e+00 0.000000e+00 0.0
0.000000e+00 0.000000e+00 0.0
0.000000e+00 0.000000e+00 0.0
0.000000e+00 0.000000e+00 0.0
0.000000e+00 0.000000e+00 0.0
0.000000e+00 0.000000e+00 0.0
0.000000e+00 0.000000e+00 0.0
0.000000e+00 0.000000e+00 0.0
0.000000e+00 0.000000e+00 0.0
0.000000e+00 0.000000e+00 0.0
0.000000e+00 0.000000e+00 0.0
0.000000e+00 0.000000e+00 0.0
0.000000e+00 0.000000e+00 0.0
0.000000e+00 0.000000e+00 0.0
0.000000e+00 0.000000e+00 0.0
0.000000e+00 0.000000e+00 0.0
0.000000e+00 0.000000e+00 0.0
0.000000e+00 0.000000e+00 0.0
0.000000e+00 0.000000e+00 0.0
0.000000e+00 0.000000e+00 0.0
0.000000e+00 0.000000e+00 0.0
0.000000e+00 0.000000e+00 0.0
0.000000e+00 0.000000e+00 0.0
0.000000e+00 0.000000e+00 0.0
0.000000e+00 0.000000e+00 0.0
0.000000e+00 0.000000e+00 0.0
0.000000e+00 0.000000e+00 0.0
0.000000e+00 0.000000e+00 0.0
0.000000e+00 0.000000e+00 0.0
0.000000e+00 0.000000e+00 0.0
0.000000e+00 0.000000e+00 0.0
0.000000e+00 0.000000e+00 0.0
0.000000e+00 0.000000e+00 0.0
0.000000e+00 0.000000e+00 0.0
0.000000e+00 0.000000e+00 0.0
0.000000e+00 0.000000e+00 0.0
0.000000e+00 0.000000e+00 0.0
0.000000e+00 0.000000e+00 0.0
0.000000e+00 0.000000e+00 0.0
0.000000e+00 0.000000e+00 0.0
0.000000e+00 0.000000e+00 0.0
0.000000e+00 0.000000e+00 0.0
0.000000e+00 0.000000e+00 0.0
0.000000e+00 0.000000e+00 0.0
0.000000e+00 0.000000e+00 0.0
0.000000e+00 0.000000e+00 0.0
0.000000e+00 0.000000e+00 0.0
0.000000e+00 0.000000e+00 0.0
0.000000e+00 0.000000e+00 0.0
0.000000e+00 0.000000e+00 0.0
0.000000e+00 0.000000e+00 0.0
0.000000e+00 0.000000e+00 0.0
0.000000e+00 0.000000e+00 0.0
0.000000e+00 0.000000e+00 0.0
0.000000e+00 0.000000e+00 0.0
0.000000e+00 0.000000e+00 0.0
0.000000e+00 0.000000e+00 0.0
0.000000e+00 0.000000e+00 0.0
0.000000e+00 0.000000e+00 0.0
0.000000e+00 0.000000e+00 0.0
0.000000e+00 0.000000e+00 0.0
0.000000e+00 0.000000e+00 0.0
0.000000e+00 0.000000e+00 0.0
0.000000e+00 0.000000e+00 0.0
0.000000e+00 0.000000e+00 0.0
0.000000e+00 0.000000e+00 0.0
0.000000e+00 0.000000e+00 0.0
0.000000e+00 0.000000e+00 0.0
0.000000e+00 0.000000e+00 0.0
0.000000e+00 0.000000e+00 0.0
0.000000e+00 0.000000e+00 0.0
0.000000e+00 0.000000e+00 0.0
0.000000e+00 0.000000e+00 0.0
0.000000e+00 0.000000e+00 0.0
0.000000e+00 0.000000e+00 0.0
0.000000e+00 0.000000e+00 0.0
0.000000e+00 0.000000e+00 0.0
0.000000e+00 0.000000e+00 0.0
0.000000e+00 0.000000e+00 0.0
0.000000e+00 0.000000e+00 0.0
0.000000e+00 0.000000e+00 0.0
0.000000e+00 0.000000e+00 0.0
0.000000e+00 0.000000e+00 0.0
0.000000e+00 0.000000e+00 0.0
0.000000e+00 0.000000e+00 0.0
0.000000e+00 0.000000e+00 0.0
0.000000e+00 0.000000e+00 0.0
0.000000e+00 0.000000e+00 0.0
0.000000e+00 0.000000e+00 0.0
0.000000e+00 0.000000e+00 0.0
0.000000e+00 0.000000e+00 0.0
0.000000e+00 0.000000e+00 0.0
0.000000e+00 0.000000e+00 0.0
0.000000e+00 0.000000e+00 0.0
0.000000e+00 0.000000e+00 0.0
0.000000e+00 0.000000e+00 0.0
0.000000e+00 0.000000e+00 0.0
0.000000e+00 0.000000e+00 0.0
0.000000e+00 0.000000e+00 0.0
0.000000e+00 0.000000e+00 0.0
0.000000e+00 0.000000e+00 0.0
0.000000e+00 0.000000e+00 0.0
0.000000e+00 0.000000e+00 0.0
0.000000e+00 0.000000e+00 0.0
0.000000e+00 0.000000e+00 0.0
0.000000e+00 0.000000e+00 0.0
0.000000e+00 0.000000e+00 0.0
0.000000e+00 0.000000e+00 0.0
0.000000e+00 0.000000e+00 0.0
0.000000e+00 0.000000e+00 0.0
0.000000e+00 0.000000e+00 0.0
0.000000e+00 0.000000e+00 0.0
0.000000e+00 0.000000e+00 0.0
0.000000e+00 0.000000e+00 0.0
0.000000e+00 0.000000e+00 0.0
0.000000e+00 0.000000e+00 0.0
0.000000e+00 0.000000e+00 0.0
0.000000e+00 0.000000e+00 0.0
0.000000e+00 0.000000e+00 0.0
0.000000e+00 0.000000e+00 0.0
0.000000e+00 0.000000e+00 0.0
0.000000e+00 0.000000e+00 0.0
0.000000e+00 0.000000e+00 0.0
0.000000e+00 0.000000e+00 0.0
0.000000e+00 0.000000e+00 0.0
0.000000e+00 0.000000e+00 0.0
0.000000e+00 0.000000e+00 0.0
0.000000e+00 0.000000e+00 0.0
0.000000e+00 0.000000e+00 0.0
0.000000e+00 0.000000e+00 0.0
0.000000e+00 0.000000e+00 0.0
0.000000e+00 0.000000e+00 0.0
0.000000e+00 0.000000e+00 0.0
0.000000e+00 0.000000e+00 0.0
0.000000e+00 0.000000e+00 0.0
0.000000e+00 0.000000e+00 0.0
0.000000e+00 0.000000e+00 0.0
0.000000e+00 0.000000e+00 0.0
0.000000e+00 0.000000e+00 0.0
0.000000e+00 0.000000e+00 0.0
0.000000e+00 0.000000e+00 0.0
0.000000e+00 0.000000e+00 0.0
0.000000e+00 0.000000e+00 0.0
0.000000e+00 0.000000e+00 0.0
0.000000e+00 0.000000e+00 0.0
0.000000e+00 0.000000e+00 0.0
0.000000e+00 0.000000e+00 0.0
0.000000e+00 0.000000e+00 0.0
0.000000e+00 0.000000e+00 0.0
0.000000e+00 0.000000e+00 0.0
0.000000e+00 0.000000e+00 0.0
0.000000e+00 0.000000e+00 0.0
0.000000e+00 0.000000e+00 0.0
0.000000e+00 0.000000e+00 0.0
0.000000e+00 0.000000e+00 0.0
0.000000e+00 0.000000e+00 0.0
0.000000e+00 0.000000e+00 0.0
0.000000e+00 0.000000e+00 0.0
0.000000e+00 0.000000e+00 0.0
0.000000e+00 0.000000e+00 0.0
0.000000e+00 0.000000e+00 0.0
0.000000e+00 0.000000e+00 0.0
0.000000e+00 0.000000e+00 0.0
0.000000e+00 0.000000e+00 0.0
0.000000e+00 0.000000e+00 0.0
0.000000e+00 0.000000e+00 0.0
0.000000e+00 0.000000e+00 0.0
0.000000e+00 0.000000e+00 0.0
0.000000e+00 0.000000e+00 0.0
0.000000e+00 0.000000e+00 0.0
0.000000e+00 0.000000e+00 0.0
0.000000e+00 0.000000e+00 0.0
0.000000e+00 0.000000e+00 0.0
0.000000e+00 0.000000e+00 0.0
0.000000e+00 0.000000e+00 0.0
0.000000e+00 0.000000e+00 0.0
0.000000e+00 0.000000e+00 0.0
0.000000e+00 0.000000e+00 0.0
0.000000e+00 0.000000e+00 0.0
0.000000e+00 0.000000e+00 0.0
0.000000e+00 0.000000e+00 0.0
0.000000e+00 0.000000e+00 0.0
0.000000e+00 0.000000e+00 0.0
0.000000e+00 0.000000e+00 0.0
0.000000e+00 0.000000e+00 0.0
0.000000e+00 0.000000e+00 0.0
0.000000e+00 0.000000e+00 0.0
0.000000e+00 0.000000e+00 0.0
0.000000e+00 0.000000e+00 0.0
0.000000e+00 0.000000e+00 0.0
0.000000e+00 0.000000e+00 0.0
0.000000e+00 0.000000e+00 0.0
0.000000e+00 0.000000e+00 0.0
0.000000e+00 0.000000e+00 0.0
0.000000e+00 0.000000e+00 0.0
0.000000e+00 0.000000e+00 0.0
0.000000e+00 0.000000e+00 0.0
0.000000e+00 0.000000e+00 0.0
0.000000e+00 0.000000e+00 0.0
0.000000e+00 0.000000e+00 0.0
0.000000e+00 0.000000e+00 0.0
0.000000e+00 0.000000e+00 0.0
0.000000e+00 0.000000e+00 0.0
0.000000e+00 0.000000e+00 0.0
0.000000e+00 0.000000e+00 0.0
0.000000e+00 0.000000e+00 0.0
0.000000e+00 0.000000e+00 0.0
0.000000e+00 0.000000e+00 0.0
0.000000e+00 0.000000e+00 0.0
0.000000e+00 0.000000e+00 0.0
0.000000e+00 0.000000e+00 0.0
0.000000e+00 0.000000e+00 0.0
0.000000e+00 0.000000e+00 0.0
0.000000e+00 0.000000e+00 0.0
0.000000e+00 0.000000e+00 0.0
0.000000e+00 0.000000e+00 0.0
0.000000e+00 0.000000e+00 0.0
0.000000e+00 0.000000e+00 0.0
0.000000e+00 0.000000e+00 0.0
0.000000e+00 0.000000e+00 0.0
0.000000e+00 0.000000e+00 0.0
0.000000e+00 0.000000e+00 0.0
0.000000e+00 0.000000e+00 0.0
0.000000e+00 0.000000e+00 0.0
0.000000e+00 0.000000e+00 0.0
0.000000e+00 0.000000e+00 0.0
0.000000e+00 0.000000e+00 0.0
0.000000e+00 0.000000e+00 0.0
0.000000e+00 0.000000e+00 0.0
0.000000e+00 0.000000e+00 0.0
0.000000e+00 0.000000e+00 0.0
0.000000e+00 0.000000e+00 0.0
0.000000e+00 0.000000e+00 0.0
0.000000e+00 0.000000e+00 0.0
0.000000e+00 0.000000e+00 0.0
0.000000e+00 0.000000e+00 0.0
0.000000e+00 0.000000e+00 0.0
0.000000e+00 0.000000e+00 0.0
0.000000e+00 0.000000e+00 0.0
0.000000e+00 0.000000e+00 0.0
0.000000e+00 0.000000e+00 0.0
0.000000e+00 0.000000e+00 0.0
0.000000e+00 0.000000e+00 0.0
0.000000e+00 0.000000e+00 0.0
0.000000e+00 0.000000e+00 0.0
0.000000e+00 0.000000e+00 0.0
0.000000e+00 0.000000e+00 0.0
0.000000e+00 0.000000e+00 0.0
0.000000e+00 0.000000e+00 0.0
0.000000e+00 0.000000e+00 0.0
0.000000e+00 0.000000e+00 0.0
0.000000e+00 0.000000e+00 0.0
0.000000e+00 0.000000e+00 0.0
0.000000e+00 0.000000e+00 0.0
0.000000e+00 0.000000e+00 0.0
0.000000e+00 0.000000e+00 0.0
0.000000e+00 0.000000e+00 0.0
0.000000e+00 0.000000e+00 0.0
0.000000e+00 0.000000e+00 0.0
0.000000e+00 0.000000e+00 0.0
0.000000e+00 0.000000e+00 0.0
0.000000e+00 0.000000e+00 0.0
0.000000e+00 0.000000e+00 0.0
0.000000e+00 0.000000e+00 0.0
0.000000e+00 0.000000e+00 0.0
0.000000e+00 0.000000e+00 0.0
0.000000e+00 0.000000e+00 0.0
0.000000e+00 0.000000e+00 0.0
0.000000e+00 0.000000e+00 0.0
0.000000e+00 0.000000e+00 0.0
0.000000e+00 0.000000e+00 0.0
0.000000e+00 0.000000e+00 0.0
0.000000e+00 0.000000e+00 0.0
0.000000e+00 0.000000e+00 0.0
0.000000e+00 0.000000e+00 0.0
0.000000e+00 0.000000e+00 0.0
0.000000e+00 0.000000e+00 0.0
0.000000e+00 0.000000e+00 0.0
0.000000e+00 0.000000e+00 0.0
0.000000e+00 0.000000e+00 0.0
0.000000e+00 0.000000e+00 0.0
0.000000e+00 0.000000e+00 0.0
0.000000e+00 0.000000e+00 0.0
0.000000e+00 0.000000e+00 0.0
0.000000e+00 0.000000e+00 0.0
0.000000e+00 0.000000e+00 0.0
0.000000e+00 0.000000e+00 0.0
0.000000e+00 0.000000e+00 0.0
0.000000e+00 0.000000e+00 0.0
0.000000e+00 0.000000e+00 0.0
0.000000e+00 0.000000e+00 0.0
0.000000e+00 0.000000e+00 0.0
0.000000e+00 0.000000e+00 0.0
0.000000e+00 0.000000e+00 0.0
0.000000e+00 0.000000e+00 0.0
0.000000e+00 0.000000e+00 0.0
0.000000e+00 0.000000e+00 0.0
0.000000e+00 0.000000e+00 0.0
0.000000e+00 0.000000e+00 0.0
0.000000e+00 0.000000e+00 0.0
0.000000e+00 0.000000e+00 0.0
0.000000e+00 0.000000e+00 0.0
0.000000e+00 0.000000e+00 0.0
0.000000e+00 0.000000e+00 0.0
0.000000e+00 0.000000e+00 0.0
0.000000e+00 0.000000e+00 0.0
0.000000e+00 0.000000e+00 0.0
0.000000e+00 0.000000e+00 0.0
0.000000e+00 0.000000e+00 0.0
0.000000e+00 0.000000e+00 0.0
0.000000e+00 0.000000e+00 0.0
0.000000e+00 0.000000e+00 0.0
0.000000e+00 0.000000e+00 0.0
0.000000e+00 0.000000e+00 0.0
0.000000e+00 0.000000e+00 0.0
0.000000e+00 0.000000e+00 0.0
0.000000e+00 0.000000e+00 0.0
0.000000e+00 0.000000e+00 0.0
0.000000e+00 0.000000e+00 0.0
0.000000e+00 0.000000e+00 0.0
0.000000e+00 0.000000e+00 0.0
0.000000e+00 0.000000e+00 0.0
0.000000e+00 0.000000e+00 0.0
0.000000e+00 0.000000e+00 0.0
0.000000e+00 0.000000e+00 0.0
0.000000e+00 0.000000e+00 0.0
0.000000e+00 0.000000e+00 0.0
0.000000e+00 0.000000e+00 0.0
0.000000e+00 0.000000e+00 0.0
0.000000e+00 0.000000e+00 0.0
0.000000e+00 0.000000e+00 0.0
0.000000e+00 0.000000e+00 0.0
0.000000e+00 0.000000e+00 0.0
0.000000e+00 0.000000e+00 0.0
0.000000e+00 0.000000e+00 0.0
0.000000e+00 0.000000e+00 0.0
0.000000e+00 0.000000e+00 0.0
0.000000e+00 0.000000e+00 0.0
0.000000e+00 0.000000e+00 0.0
0.000000e+00 0.000000e+00 0.0
0.000000e+00 0.000000e+00 0.0
0.000000e+00 0.000000e+00 0.0
0.000000e+00 0.000000e+00 0.0
0.000000e+00 0.000000e+00 0.0
0.000000e+00 0.000000e+00 0.0
0.000000e+00 0.000000e+00 0.0
0.000000e+00 0.000000e+00 0.0
0.000000e+00 0.000000e+00 0.0
0.000000e+00 0.000000e+00 0.0
0.000000e+00 0.000000e+00 0.0
0.000000e+00 0.000000e+00 0.0
0.000000e+00 0.000000e+00 0.0
0.000000e+00 0.000000e+00 0.0
0.000000e+00 0.000000e+00 0.0
0.000000e+00 0.000000e+00 0.0
0.000000e+00 0.000000e+00 0.0
0.000000e+00 0.000000e+00 0.0
0.000000e+00 0.000000e+00 0.0
0.000000e+00 0.000000e+00 0.0
0.000000e+00 0.000000e+00 0.0
0.000000e+00 0.000000e+00 0.0
0.000000e+00 0.000000e+00 0.0
0.000000e+00 0.000000e+00 0.0
0.000000e+00 0.000000e+00 0.0
0.000000e+00 0.000000e+00 0.0
0.000000e+00 0.000000e+00 0.0
0.000000e+00 0.000000e+00 0.0
0.000000e+00 0.000000e+00 0.0
0.000000e+00 0.000000e+00 0.0
0.000000e+00 0.000000e+00 0.0
0.000000e+00 0.000000e+00 0.0
0.000000e+00 0.000000e+00 0.0
0.000000e+00 0.000000e+00 0.0
0.000000e+00 0.000000e+00 0.0
0.000000e+00 0.000000e+00 0.0
0.000000e+00 0.000000e+00 0.0
0.000000e+00 0.000000e+00 0.0
0.000000e+00 0.000000e+00 0.0
0.000000e+00 0.000000e+00 0.0
0.000000e+00 0.000000e+00 0.0
0.000000e+00 0.000000e+00 0.0
0.000000e+00 0.000000e+00 0.0
0.000000e+00 0.000000e+00 0.0
0.000000e+00 0.000000e+00 0.0
0.000000e+00 0.000000e+00 0.0
0.000000e+00 0.000000e+00 0.0
0.000000e+00 0.000000e+00 0.0
0.000000e+00 0.000000e+00 0.0
0.000000e+00 0.000000e+00 0.0
0.000000e+00 0.000000e+00 0.0
0.000000e+00 0.000000e+00 0.0
0.000000e+00 0.000000e+00 0.0
0.000000e+00 0.000000e+00 0.0
0.000000e+00 0.000000e+00 0.0
0.000000e+00 0.000000e+00 0.0
0.000000e+00 0.000000e+00 0.0
0.000000e+00 0.000000e+00 0.0
0.000000e+00 0.000000e+00 0.0
0.000000e+00 0.000000e+00 0.0
0.000000e+00 0.000000e+00 0.0
0.000000e+00 0.000000e+00 0.0
0.000000e+00 0.000000e+00 0.0
0.000000e+00 0.000000e+00 0.0
0.000000e+00 0.000000e+00 0.0
0.000000e+00 0.000000e+00 0.0
0.000000e+00 0.000000e+00 0.0
0.000000e+00 0.000000e+00 0.0
0.000000e+00 0.000000e+00 0.0
0.000000e+00 0.000000e+00 0.0
0.000000e+00 0.000000e+00 0.0
0.000000e+00 0.000000e+00 0.0
0.000000e+00 0.000000e+00 0.0
0.000000e+00 0.000000e+00 0.0
0.000000e+00 0.000000e+00 0.0
0.000000e+00 0.000000e+00 0.0
0.000000e+00 0.000000e+00 0.0
0.000000e+00 0.000000e+00 0.0
0.000000e+00 0.000000e+00 0.0
0.000000e+00 0.000000e+00 0.0
0.000000e+00 0.000000e+00 0.0
0.000000e+00 0.000000e+00 0.0
0.000000e+00 0.000000e+00 0.0
0.000000e+00 0.000000e+00 0.0
0.000000e+00 0.000000e+00 0.0
0.000000e+00 0.000000e+00 0.0
0.000000e+00 0.000000e+00 0.0
0.000000e+00 0.000000e+00 0.0
0.000000e+00 0.000000e+00 0.0
0.000000e+00 0.000000e+00 0.0
0.000000e+00 0.000000e+00 0.0
0.000000e+00 0.000000e+00 0.0
0.000000e+00 0.000000e+00 0.0
0.000000e+00 0.000000e+00 0.0
0.000000e+00 0.000000e+00 0.0
0.000000e+00 0.000000e+00 0.0