# vtk DataFile Version 2.0
Simplicial Mesh Example
ASCII
DATASET UNSTRUCTURED_GRID
POINTS 11 double
-5.000000e+04 7.651267e+02 0.0
-5.000000e+04 6.121014e+02 0.0
-5.000000e+04 4.590760e+02 0.0
-5.000000e+04 3.060507e+02 0.0
-5.000000e+04 0.000000e+00 0.0
-5.000000e+04 -4.590760e+02 0.0
-5.000000e+04 -3.060507e+02 0.0
-5.000000e+04 -7.651267e+02 0.0
-5.000000e+04 -6.121014e+02 0.0
-5.000000e+04 -1.530253e+02 0.0
-5.000000e+04 1.530253e+02 0.0
CELLS 10 30
2  0 1
2  6 5
2  8 7
2  9 6
2  10 4
2  1 2
2  2 3
2  3 10
2  4 9
2  5 8
CELL_TYPES 10
3
3
3
3
3
3
3
3
3
3
POINT_DATA 11
VECTORS displacement double
0.000000e+00 0.000000e+00 0.0
0.000000e+00 0.000000e+00 0.0
0.000000e+00 0.000000e+00 0.0
0.000000e+00 0.000000e+00 0.0
0.000000e+00 0.000000e+00 0.0
0.000000e+00 0.000000e+00 0.0
0.000000e+00 0.000000e+00 0.0
0.000000e+00 0.000000e+00 0.0
0.000000e+00 0.000000e+00 0.0
0.000000e+00 0.000000e+00 0.0
0.000000e+00 0.000000e+00 0.0
