# vtk DataFile Version 2.0
Simplicial Mesh Example
ASCII
DATASET UNSTRUCTURED_GRID
POINTS 12999 double
4.900000e+04 7.662070e+02 0.0
4.905000e+04 6.332748e+02 0.0
4.910000e+04 7.656602e+02 0.0
4.770000e+04 7.697825e+02 0.0
4.775000e+04 6.364202e+02 0.0
4.780000e+04 7.696986e+02 0.0
4.640000e+04 7.692400e+02 0.0
4.645000e+04 6.360486e+02 0.0
4.650000e+04 7.693475e+02 0.0
4.510000e+04 7.680951e+02 0.0
4.515000e+04 6.350713e+02 0.0
4.520000e+04 7.681320e+02 0.0
4.380000e+04 7.683908e+02 0.0
4.385000e+04 6.352751e+02 0.0
4.390000e+04 7.683279e+02 0.0
4.250000e+04 7.694825e+02 0.0
4.255000e+04 6.361666e+02 0.0
4.260000e+04 7.693914e+02 0.0
4.120000e+04 7.704394e+02 0.0
4.125000e+04 6.369763e+02 0.0
4.130000e+04 7.703918e+02 0.0
3.990000e+04 7.704111e+02 0.0
3.995000e+04 6.369917e+02 0.0
4.000000e+04 7.704570e+02 0.0
3.860000e+04 7.691863e+02 0.0
3.865000e+04 6.360156e+02 0.0
3.870000e+04 7.693209e+02 0.0
3.730000e+04 7.668600e+02 0.0
3.735000e+04 6.341258e+02 0.0
3.740000e+04 7.670758e+02 0.0
3.600000e+04 7.635330e+02 0.0
3.605000e+04 6.314043e+02 0.0
3.610000e+04 7.638202e+02 0.0
3.460000e+04 7.593845e+02 0.0
3.465000e+04 6.279738e+02 0.0
3.470000e+04 7.596723e+02 0.0
3.330000e+04 7.562073e+02 0.0
3.335000e+04 6.253071e+02 0.0
3.340000e+04 7.564005e+02 0.0
3.200000e+04 7.549012e+02 0.0
3.205000e+04 6.241495e+02 0.0
3.210000e+04 7.549082e+02 0.0
3.060000e+04 7.564708e+02 0.0
3.065000e+04 6.253683e+02 0.0
3.070000e+04 7.562840e+02 0.0
2.930000e+04 7.590785e+02 0.0
2.935000e+04 6.275265e+02 0.0
2.940000e+04 7.588936e+02 0.0
2.800000e+04 7.604107e+02 0.0
2.805000e+04 6.287041e+02 0.0
2.810000e+04 7.604064e+02 0.0
2.660000e+04 7.578728e+02 0.0
2.665000e+04 6.267497e+02 0.0
2.670000e+04 7.582168e+02 0.0
2.520000e+04 7.515456e+02 0.0
2.525000e+04 6.215832e+02 0.0
2.530000e+04 7.520510e+02 0.0
2.390000e+04 7.453107e+02 0.0
2.395000e+04 6.163925e+02 0.0
2.400000e+04 7.457339e+02 0.0
2.250000e+04 7.416175e+02 0.0
2.255000e+04 6.131994e+02 0.0
2.260000e+04 7.417065e+02 0.0
2.110000e+04 7.427965e+02 0.0
2.115000e+04 6.140574e+02 0.0
2.120000e+04 7.425988e+02 0.0
1.980000e+04 7.459673e+02 0.0
1.985000e+04 6.166581e+02 0.0
1.990000e+04 7.457152e+02 0.0
1.840000e+04 7.484996e+02 0.0
1.845000e+04 6.188236e+02 0.0
1.850000e+04 7.484170e+02 0.0
1.700000e+04 7.474093e+02 0.0
1.705000e+04 6.180389e+02 0.0
1.710000e+04 7.476103e+02 0.0
1.560000e+04 7.432912e+02 0.0
1.565000e+04 6.146961e+02 0.0
1.570000e+04 7.436446e+02 0.0
1.420000e+04 7.380774e+02 0.0
1.425000e+04 6.103901e+02 0.0
1.430000e+04 7.384449e+02 0.0
1.270000e+04 7.333947e+02 0.0
1.275000e+04 6.064702e+02 0.0
1.280000e+04 7.336467e+02 0.0
1.130000e+04 7.309130e+02 0.0
1.135000e+04 6.043590e+02 0.0
1.140000e+04 7.310218e+02 0.0
9.900000e+03 7.306203e+02 0.0
9.950000e+03 6.040474e+02 0.0
1.000000e+04 7.305613e+02 0.0
8.500000e+03 7.328400e+02 0.0
8.550000e+03 6.058065e+02 0.0
8.600000e+03 7.325966e+02 0.0
7.000000e+03 7.376551e+02 0.0
7.050000e+03 6.097339e+02 0.0
7.100000e+03 7.372801e+02 0.0
5.600000e+03 7.433109e+02 0.0
5.650000e+03 6.143933e+02 0.0
5.700000e+03 7.428939e+02 0.0
4.100000e+03 7.493446e+02 0.0
4.150000e+03 6.193998e+02 0.0
4.200000e+03 7.489694e+02 0.0
2.600000e+03 7.540089e+02 0.0
2.650000e+03 6.233128e+02 0.0
2.700000e+03 7.537690e+02 0.0
1.100000e+03 7.558841e+02 0.0
1.150000e+03 6.249590e+02 0.0
1.200000e+03 7.558744e+02 0.0
-3.000000e+02 7.538696e+02 0.0
-2.500000e+02 6.234155e+02 0.0
-2.000000e+02 7.541547e+02 0.0
-1.800000e+03 7.480626e+02 0.0
-1.750000e+03 6.186711e+02 0.0
-1.700000e+03 7.484905e+02 0.0
-3.400000e+03 7.423724e+02 0.0
-3.350000e+03 6.138851e+02 0.0
-3.300000e+03 7.426089e+02 0.0
-4.900000e+03 7.424278e+02 0.0
-4.850000e+03 6.137280e+02 0.0
-4.800000e+03 7.421765e+02 0.0
-6.400000e+03 7.494207e+02 0.0
-6.350000e+03 6.193680e+02 0.0
-6.300000e+03 7.488208e+02 0.0
-8.000000e+03 7.594350e+02 0.0
-7.950000e+03 6.276558e+02 0.0
-7.900000e+03 7.588482e+02 0.0
-9.500000e+03 7.657132e+02 0.0
-9.450000e+03 6.329957e+02 0.0
-9.400000e+03 7.654837e+02 0.0
-1.110000e+04 7.663039e+02 0.0
-1.105000e+04 6.336175e+02 0.0
-1.100000e+04 7.664005e+02 0.0
-1.270000e+04 7.636623e+02 0.0
-1.265000e+04 6.314701e+02 0.0
-1.260000e+04 7.638514e+02 0.0
-1.430000e+04 7.614616e+02 0.0
-1.425000e+04 6.296016e+02 0.0
-1.420000e+04 7.615339e+02 0.0
-1.590000e+04 7.611575e+02 0.0
-1.585000e+04 6.293153e+02 0.0
-1.580000e+04 7.611440e+02 0.0
-1.750000e+04 7.614344e+02 0.0
-1.745000e+04 6.295479e+02 0.0
-1.740000e+04 7.614282e+02 0.0
-1.920000e+04 7.607814e+02 0.0
-1.915000e+04 6.290444e+02 0.0
-1.910000e+04 7.608629e+02 0.0
-2.080000e+04 7.588794e+02 0.0
-2.075000e+04 6.274989e+02 0.0
-2.070000e+04 7.590269e+02 0.0
-2.250000e+04 7.559722e+02 0.0
-2.245000e+04 6.251115e+02 0.0
-2.240000e+04 7.561593e+02 0.0
-2.420000e+04 7.525989e+02 0.0
-2.415000e+04 6.223317e+02 0.0
-2.410000e+04 7.528084e+02 0.0
-2.590000e+04 7.487692e+02 0.0
-2.585000e+04 6.191783e+02 0.0
-2.580000e+04 7.490099e+02 0.0
-2.770000e+04 7.440501e+02 0.0
-2.765000e+04 6.152927e+02 0.0
-2.760000e+04 7.443301e+02 0.0
-2.940000e+04 7.396356e+02 0.0
-2.935000e+04 6.116167e+02 0.0
-2.930000e+04 7.398546e+02 0.0
-3.120000e+04 7.375620e+02 0.0
-3.115000e+04 6.098095e+02 0.0
-3.110000e+04 7.375588e+02 0.0
-3.310000e+04 7.410514e+02 0.0
-3.305000e+04 6.125601e+02 0.0
-3.300000e+04 7.407222e+02 0.0
-3.490000e+04 7.484994e+02 0.0
-3.485000e+04 6.186659e+02 0.0
-3.480000e+04 7.480412e+02 0.0
-3.680000e+04 7.567781e+02 0.0
-3.675000e+04 6.255420e+02 0.0
-3.670000e+04 7.563934e+02 0.0
-3.760000e+04 7.595972e+02 0.0
-3.755000e+04 6.278963e+02 0.0
-3.750000e+04 7.592695e+02 0.0
-3.765000e+04 6.281645e+02 0.0
-3.775000e+04 6.284271e+02 0.0
-3.770000e+04 7.599182e+02 0.0
-3.785000e+04 6.286840e+02 0.0
-3.780000e+04 7.602323e+02 0.0
-3.795000e+04 6.289354e+02 0.0
-3.790000e+04 7.605397e+02 0.0
-3.805000e+04 6.291813e+02 0.0
-3.800000e+04 7.608405e+02 0.0
-3.825000e+04 6.296568e+02 0.0
-3.815000e+04 6.294218e+02 0.0
-3.820000e+04 7.614222e+02 0.0
-3.835000e+04 6.298865e+02 0.0
-3.830000e+04 7.617032e+02 0.0
-3.845000e+04 6.301109e+02 0.0
-3.840000e+04 7.619778e+02 0.0
-3.855000e+04 6.303301e+02 0.0
-3.850000e+04 7.622461e+02 0.0
-3.865000e+04 6.305441e+02 0.0
-3.860000e+04 7.625080e+02 0.0
-3.875000e+04 6.307529e+02 0.0
-3.870000e+04 7.627636e+02 0.0
-3.900000e+04 7.634936e+02 0.0
-3.895000e+04 6.311552e+02 0.0
-3.890000e+04 7.632564e+02 0.0
-3.905000e+04 6.313488e+02 0.0
-3.915000e+04 6.315375e+02 0.0
-3.910000e+04 7.637248e+02 0.0
-3.925000e+04 6.317212e+02 0.0
-3.920000e+04 7.639500e+02 0.0
-3.935000e+04 6.319001e+02 0.0
-3.930000e+04 7.641693e+02 0.0
-3.945000e+04 6.320742e+02 0.0
-3.940000e+04 7.643828e+02 0.0
-3.965000e+04 6.324081e+02 0.0
-3.955000e+04 6.322435e+02 0.0
-3.960000e+04 7.647923e+02 0.0
-3.975000e+04 6.325681e+02 0.0
-3.970000e+04 7.649886e+02 0.0
-3.985000e+04 6.327234e+02 0.0
-3.980000e+04 7.651792e+02 0.0
-3.995000e+04 6.328741e+02 0.0
-3.990000e+04 7.653643e+02 0.0
-4.005000e+04 6.330203e+02 0.0
-4.000000e+04 7.655438e+02 0.0
-4.015000e+04 6.331620e+02 0.0
-4.010000e+04 7.657180e+02 0.0
-4.025000e+04 6.332994e+02 0.0
-4.020000e+04 7.658867e+02 0.0
-4.050000e+04 7.663612e+02 0.0
-4.045000e+04 6.335609e+02 0.0
-4.040000e+04 7.662083e+02 0.0
-4.055000e+04 6.336852e+02 0.0
-4.065000e+04 6.338053e+02 0.0
-4.060000e+04 7.665090e+02 0.0
-4.075000e+04 6.339212e+02 0.0
-4.070000e+04 7.666518e+02 0.0
-4.085000e+04 6.340330e+02 0.0
-4.080000e+04 7.667894e+02 0.0
-4.095000e+04 6.341407e+02 0.0
-4.090000e+04 7.669222e+02 0.0
-4.105000e+04 6.342443e+02 0.0
-4.100000e+04 7.670499e+02 0.0
-4.115000e+04 6.343438e+02 0.0
-4.110000e+04 7.671728e+02 0.0
-4.135000e+04 6.345306e+02 0.0
-4.125000e+04 6.344393e+02 0.0
-4.130000e+04 7.674037e+02 0.0
-4.145000e+04 6.346178e+02 0.0
-4.140000e+04 7.675116e+02 0.0
-4.155000e+04 6.347008e+02 0.0
-4.150000e+04 7.676146e+02 0.0
-4.165000e+04 6.347797e+02 0.0
-4.160000e+04 7.677125e+02 0.0
-4.175000e+04 6.348544e+02 0.0
-4.170000e+04 7.678053e+02 0.0
-4.185000e+04 6.349248e+02 0.0
-4.180000e+04 7.678931e+02 0.0
-4.195000e+04 6.349911e+02 0.0
-4.190000e+04 7.679758e+02 0.0
-4.205000e+04 6.350531e+02 0.0
-4.200000e+04 7.680533e+02 0.0
-4.215000e+04 6.351108e+02 0.0
-4.210000e+04 7.681257e+02 0.0
-4.235000e+04 6.352134e+02 0.0
-4.225000e+04 6.351643e+02 0.0
-4.230000e+04 7.682551e+02 0.0
-4.245000e+04 6.352583e+02 0.0
-4.240000e+04 7.683119e+02 0.0
-4.255000e+04 6.352988e+02 0.0
-4.250000e+04 7.683635e+02 0.0
-4.265000e+04 6.353350e+02 0.0
-4.260000e+04 7.684099e+02 0.0
-4.275000e+04 6.353668e+02 0.0
-4.270000e+04 7.684510e+02 0.0
-4.285000e+04 6.353942e+02 0.0
-4.280000e+04 7.684869e+02 0.0
-4.295000e+04 6.354172e+02 0.0
-4.290000e+04 7.685174e+02 0.0
-4.305000e+04 6.354358e+02 0.0
-4.300000e+04 7.685425e+02 0.0
-4.315000e+04 6.354500e+02 0.0
-4.310000e+04 7.685623e+02 0.0
-4.335000e+04 6.354649e+02 0.0
-4.325000e+04 6.354597e+02 0.0
-4.330000e+04 7.685858e+02 0.0
-4.345000e+04 6.354656e+02 0.0
-4.340000e+04 7.685894e+02 0.0
-4.355000e+04 6.354619e+02 0.0
-4.350000e+04 7.685876e+02 0.0
-4.365000e+04 6.354536e+02 0.0
-4.360000e+04 7.685803e+02 0.0
-4.375000e+04 6.354407e+02 0.0
-4.370000e+04 7.685675e+02 0.0
-4.385000e+04 6.354233e+02 0.0
-4.380000e+04 7.685492e+02 0.0
-4.395000e+04 6.354013e+02 0.0
-4.390000e+04 7.685254e+02 0.0
-4.405000e+04 6.353747e+02 0.0
-4.400000e+04 7.684960e+02 0.0
-4.415000e+04 6.353435e+02 0.0
-4.410000e+04 7.684611e+02 0.0
-4.425000e+04 6.353077e+02 0.0
-4.420000e+04 7.684205e+02 0.0
-4.435000e+04 6.352672e+02 0.0
-4.430000e+04 7.683744e+02 0.0
-4.445000e+04 6.352221e+02 0.0
-4.440000e+04 7.683226e+02 0.0
-4.470000e+04 7.681332e+02 0.0
-4.465000e+04 6.351177e+02 0.0
-4.460000e+04 7.682020e+02 0.0
-4.475000e+04 6.350584e+02 0.0
-4.485000e+04 6.349944e+02 0.0
-4.480000e+04 7.680586e+02 0.0
-4.495000e+04 6.349256e+02 0.0
-4.490000e+04 7.679783e+02 0.0
-4.505000e+04 6.348521e+02 0.0
-4.500000e+04 7.678923e+02 0.0
-4.515000e+04 6.347737e+02 0.0
-4.510000e+04 7.678004e+02 0.0
-4.525000e+04 6.346906e+02 0.0
-4.520000e+04 7.677028e+02 0.0
[...]
CELL_DATA 23976
VECTORS total_strain double
4.223737e-05 -1.655125e-05 -3.218088e-07
4.216574e-05 -1.650718e-05 -4.900094e-08
4.223518e-05 -1.652441e-05 5.466368e-08
4.233191e-05 -1.655539e-05 2.060024e-08
4.230595e-05 -1.654778e-05 -3.313553e-08
4.223474e-05 -1.652253e-05 -4.835789e-08
4.216911e-05 -1.649947e-05 -2.489007e-08
4.216596e-05 -1.649874e-05 2.464122e-08
4.223194e-05 -1.652423e-05 7.273945e-08
4.235878e-05 -1.657351e-05 1.171122e-07
4.254572e-05 -1.664551e-05 1.555128e-07
4.279461e-05 -1.673929e-05 1.566193e-07
4.299257e-05 -1.681350e-05 1.051976e-07
4.308779e-05 -1.684761e-05 3.106364e-09
4.297983e-05 -1.681044e-05 -1.005183e-07
4.280232e-05 -1.674755e-05 -9.916489e-08
4.269199e-05 -1.671105e-05 5.557456e-11
4.282433e-05 -1.676251e-05 1.859467e-07
4.322049e-05 -1.690829e-05 2.770389e-07
4.362213e-05 -1.705742e-05 2.335839e-07
4.387996e-05 -1.715236e-05 5.159957e-08
4.378243e-05 -1.712190e-05 -1.083088e-07
4.356394e-05 -1.704383e-05 -1.381447e-07
4.337513e-05 -1.697805e-05 -4.370502e-08
4.344042e-05 -1.700136e-05 1.103830e-07
4.369779e-05 -1.709710e-05 1.963777e-07
4.402748e-05 -1.722134e-05 2.057542e-07
4.432402e-05 -1.733496e-05 1.428241e-07
4.448272e-05 -1.739637e-05 6.167503e-08
4.450958e-05 -1.740606e-05 -3.389104e-08
4.437781e-05 -1.735487e-05 -1.374759e-07
4.407857e-05 -1.724043e-05 -2.108961e-07
4.373221e-05 -1.710750e-05 -2.328054e-07
4.336594e-05 -1.696719e-05 -2.076117e-07
4.308057e-05 -1.685879e-05 -1.315687e-07
4.295353e-05 -1.681227e-05 -4.365241e-09
4.305638e-05 -1.685283e-05 1.548429e-07
4.343117e-05 -1.698941e-05 2.351276e-07
4.381849e-05 -1.713070e-05 1.296975e-07
4.385560e-05 -1.713967e-05 -1.382816e-07
4.340423e-05 -1.697329e-05 -3.302309e-07
4.277783e-05 -1.674012e-05 -3.182753e-07
4.238697e-05 -1.659477e-05 -1.264544e-07
4.237788e-05 -1.658445e-05 5.044922e-08
4.255355e-05 -1.664616e-05 1.010992e-07
4.269478e-05 -1.669827e-05 4.038219e-08
4.270120e-05 -1.670358e-05 -6.587538e-09
4.267276e-05 -1.669523e-05 -2.545562e-09
4.270348e-05 -1.670800e-05 4.438846e-08
4.281242e-05 -1.674974e-05 8.065916e-08
4.297986e-05 -1.681434e-05 1.028094e-07
4.317144e-05 -1.688933e-05 1.159821e-07
4.339003e-05 -1.697506e-05 1.338946e-07
4.366684e-05 -1.708261e-05 1.555859e-07
4.394795e-05 -1.718862e-05 1.222221e-07
4.409820e-05 -1.724322e-05 -2.892962e-09
4.389037e-05 -1.716362e-05 -1.837727e-07
4.343309e-05 -1.698970e-05 -2.536945e-07
4.293650e-05 -1.679988e-05 -2.117656e-07
4.277690e-05 -1.673734e-05 -1.798462e-07
4.277640e-05 -1.673358e-05 -1.749824e-07
4.275842e-05 -1.672656e-05 -1.712282e-07
4.274083e-05 -1.671970e-05 -1.675109e-07
4.272364e-05 -1.671298e-05 -1.638304e-07
4.270683e-05 -1.670642e-05 -1.601864e-07
4.267435e-05 -1.669375e-05 -1.530074e-07
4.265868e-05 -1.668763e-05 -1.494720e-07
4.264337e-05 -1.668166e-05 -1.459723e-07
4.262844e-05 -1.667583e-05 -1.425083e-07
4.261386e-05 -1.667014e-05 -1.390795e-07
4.259965e-05 -1.666459e-05 -1.356860e-07
4.255814e-05 -1.665150e-05 -1.295101e-07
4.255912e-05 -1.664878e-05 -1.257151e-07
4.254630e-05 -1.664377e-05 -1.224609e-07
4.253383e-05 -1.663890e-05 -1.192411e-07
4.252169e-05 -1.663416e-05 -1.160558e-07
4.250988e-05 -1.662956e-05 -1.129047e-07
4.248724e-05 -1.662072e-05 -1.067048e-07
4.247641e-05 -1.661649e-05 -1.036558e-07
4.246589e-05 -1.661239e-05 -1.006406e-07
4.245569e-05 -1.660840e-05 -9.765897e-08
4.244579e-05 -1.660454e-05 -9.471080e-08
4.243620e-05 -1.660080e-05 -9.179580e-08
4.242692e-05 -1.659718e-05 -8.891365e-08
4.239863e-05 -1.658877e-05 -8.323713e-08
4.240082e-05 -1.658699e-05 -8.045858e-08
4.239269e-05 -1.658382e-05 -7.770074e-08
4.238485e-05 -1.658076e-05 -7.497020e-08
4.237727e-05 -1.657780e-05 -7.226367e-08
4.236997e-05 -1.657495e-05 -6.957607e-08
4.236293e-05 -1.657220e-05 -6.690043e-08
4.235615e-05 -1.656955e-05 -6.422956e-08
4.234341e-05 -1.656457e-05 -5.888235e-08
4.233745e-05 -1.656224e-05 -5.620025e-08
4.233176e-05 -1.656002e-05 -5.351027e-08
4.232634e-05 -1.655790e-05 -5.081147e-08
4.232121e-05 -1.655590e-05 -4.810319e-08
4.231635e-05 -1.655400e-05 -4.538500e-08
4.231178e-05 -1.655221e-05 -4.265657e-08
4.230749e-05 -1.655053e-05 -3.991769e-08
4.230348e-05 -1.654897e-05 -3.716820e-08
4.229633e-05 -1.654617e-05 -3.163697e-08
4.229318e-05 -1.654494e-05 -2.885507e-08
4.229032e-05 -1.654382e-05 -2.606222e-08
4.228775e-05 -1.654282e-05 -2.325836e-08
4.228547e-05 -1.654193e-05 -2.044345e-08
4.228348e-05 -1.654115e-05 -1.761742e-08
4.228178e-05 -1.654048e-05 -1.478021e-08
4.228038e-05 -1.653994e-05 -1.193176e-08
4.227927e-05 -1.653950e-05 -9.071998e-09
4.227794e-05 -1.653898e-05 -3.318185e-09
4.227772e-05 -1.653889e-05 -4.239489e-10
4.227780e-05 -1.653892e-05 2.481981e-09
4.227818e-05 -1.653907e-05 5.399721e-09
4.227886e-05 -1.653934e-05 8.329395e-09
4.227984e-05 -1.653972e-05 1.127113e-08
4.228112e-05 -1.654022e-05 1.422504e-08
4.228271e-05 -1.654084e-05 1.719124e-08
4.228460e-05 -1.654158e-05 2.016979e-08
4.228680e-05 -1.654243e-05 2.316069e-08
4.228931e-05 -1.654341e-05 2.616385e-08
4.229213e-05 -1.654451e-05 2.917901e-08
4.229341e-05 -1.654793e-05 3.738619e-08
4.230246e-05 -1.654853e-05 3.828938e-08
4.230654e-05 -1.655012e-05 4.134288e-08
4.231095e-05 -1.655183e-05 4.440002e-08
4.231570e-05 -1.655368e-05 4.745570e-08
4.232080e-05 -1.655566e-05 5.050205e-08
4.232625e-05 -1.655778e-05 5.352685e-08
4.233208e-05 -1.656005e-05 5.651087e-08
4.233829e-05 -1.656248e-05 5.942357e-08
4.234490e-05 -1.656507e-05 6.221933e-08
4.235187e-05 -1.656781e-05 6.484374e-08
4.235919e-05 -1.657070e-05 6.724967e-08
4.236681e-05 -1.657370e-05 6.940506e-08
4.237469e-05 -1.657681e-05 7.128950e-08
4.238279e-05 -1.658000e-05 7.288994e-08
4.240198e-05 -1.658827e-05 7.698344e-08
4.240796e-05 -1.658992e-05 7.591524e-08
4.241653e-05 -1.659329e-05 7.631821e-08
4.242512e-05 -1.659668e-05 7.641461e-08
4.243371e-05 -1.660006e-05 7.620316e-08
4.244227e-05 -1.660343e-05 7.568287e-08
4.245075e-05 -1.660677e-05 7.485302e-08
4.245914e-05 -1.661008e-05 7.371299e-08
4.246739e-05 -1.661333e-05 7.226224e-08
4.247548e-05 -1.661652e-05 7.050021e-08
4.248337e-05 -1.661963e-05 6.842633e-08
4.249104e-05 -1.662265e-05 6.603996e-08
4.249845e-05 -1.662558e-05 6.334042e-08
4.250558e-05 -1.662839e-05 6.032691e-08
4.251238e-05 -1.663108e-05 5.699862e-08
4.251884e-05 -1.663363e-05 5.335473e-08
4.252492e-05 -1.663604e-05 4.939447e-08
4.253059e-05 -1.663829e-05 4.511731e-08
4.253583e-05 -1.664037e-05 4.052315e-08
4.254059e-05 -1.664227e-05 3.561262e-08
4.254484e-05 -1.664397e-05 3.038757e-08
4.254855e-05 -1.664547e-05 2.485168e-08
4.255168e-05 -1.664674e-05 1.901140e-08
4.255417e-05 -1.664778e-05 1.287720e-08
4.255597e-05 -1.664855e-05 6.465227e-09
4.255701e-05 -1.664904e-05 -2.003432e-10
4.255719e-05 -1.664920e-05 -7.084058e-09
4.255640e-05 -1.664900e-05 -1.413457e-08
4.255448e-05 -1.664836e-05 -2.127774e-08
4.255125e-05 -1.664721e-05 -2.840575e-08
4.254647e-05 -1.664545e-05 -3.535928e-08
4.253986e-05 -1.664295e-05 -4.189682e-08
4.253114e-05 -1.663955e-05 -4.764219e-08
4.251994e-05 -1.663506e-05 -5.210885e-08
4.250640e-05 -1.662951e-05 -5.440371e-08
4.249318e-05 -1.662340e-05 -5.184476e-08
4.247443e-05 -1.661686e-05 -4.505448e-08
4.233328e-05 -1.657467e-05 -1.489387e-08
4.239278e-05 -1.658494e-05 7.610923e-08
4.228987e-05 -1.654653e-05 3.429234e-08
4.245852e-05 -1.661262e-05 -2.687047e-08
4.227152e-05 -1.653922e-05 -4.845840e-09
4.250369e-05 -1.665425e-05 -2.045447e-09
4.229163e-05 -1.654698e-05 -3.359278e-08
4.252249e-05 -1.666035e-05 -4.007208e-10
4.234040e-05 -1.656593e-05 -6.125331e-08
4.240710e-05 -1.659211e-05 -8.608674e-08
4.253158e-05 -1.666198e-05 -1.083000e-11
4.248572e-05 -1.662305e-05 -1.100761e-07
4.257140e-05 -1.665671e-05 -1.328715e-07
4.251596e-05 -1.666006e-05 -2.874932e-09
4.267419e-05 -1.669705e-05 -1.573997e-07
4.250375e-05 -1.665346e-05 2.212248e-09
4.279539e-05 -1.674459e-05 -1.837174e-07
4.233351e-05 -1.657487e-05 1.501118e-08
4.281428e-05 -1.675200e-05 -1.876256e-07
4.283358e-05 -1.675956e-05 -1.915700e-07
4.240845e-05 -1.661262e-05 3.485074e-08
4.252792e-05 -1.666301e-05 -1.657264e-09
4.285329e-05 -1.676729e-05 -1.955497e-07
4.247447e-05 -1.661664e-05 4.565540e-08
4.287343e-05 -1.677518e-05 -1.995628e-07
4.249108e-05 -1.662270e-05 5.257547e-08
4.289400e-05 -1.678324e-05 -2.036066e-07
4.250620e-05 -1.662938e-05 5.455120e-08
4.291501e-05 -1.679147e-05 -2.076766e-07
4.251977e-05 -1.663500e-05 5.222534e-08
4.295848e-05 -1.680847e-05 -2.158626e-07
4.298101e-05 -1.681725e-05 -2.199494e-07
4.253970e-05 -1.664289e-05 4.193753e-08
4.300415e-05 -1.682624e-05 -2.239964e-07
4.254630e-05 -1.664539e-05 3.538448e-08
4.302800e-05 -1.683545e-05 -2.279551e-07
4.255108e-05 -1.664714e-05 2.842084e-08
4.305260e-05 -1.684488e-05 -2.317600e-07
4.255431e-05 -1.664829e-05 2.128670e-08
4.307786e-05 -1.685452e-05 -2.353481e-07
4.255623e-05 -1.664892e-05 1.414000e-08
4.310364e-05 -1.686434e-05 -2.386754e-07
4.255702e-05 -1.664913e-05 7.087422e-09
4.312988e-05 -1.687432e-05 -2.417148e-07
4.255684e-05 -1.664897e-05 2.024402e-10
4.315648e-05 -1.688444e-05 -2.444492e-07
4.255580e-05 -1.664848e-05 -6.463978e-09
4.318341e-05 -1.689467e-05 -2.468677e-07
4.255400e-05 -1.664771e-05 -1.287657e-08
4.321060e-05 -1.690501e-05 -2.489629e-07
4.255150e-05 -1.664667e-05 -1.901125e-08
4.323802e-05 -1.691544e-05 -2.507298e-07
4.254838e-05 -1.664540e-05 -2.485190e-08
4.326562e-05 -1.692594e-05 -2.521648e-07
4.329337e-05 -1.693650e-05 -2.532653e-07
4.254041e-05 -1.664220e-05 -3.561337e-08
4.332123e-05 -1.694710e-05 -2.540294e-07
4.253566e-05 -1.664030e-05 -4.052408e-08
4.334917e-05 -1.695774e-05 -2.544555e-07
4.337715e-05 -1.696839e-05 -2.545424e-07
4.252475e-05 -1.663597e-05 -4.939561e-08
4.340513e-05 -1.697905e-05 -2.542891e-07
4.251868e-05 -1.663356e-05 -5.335593e-08
4.346098e-05 -1.700032e-05 -2.527580e-07
4.251222e-05 -1.663101e-05 -5.699986e-08
4.348877e-05 -1.701091e-05 -2.514786e-07
4.250541e-05 -1.662832e-05 -6.032817e-08
4.351643e-05 -1.702145e-05 -2.498556e-07
4.249829e-05 -1.662551e-05 -6.334168e-08
4.354392e-05 -1.703192e-05 -2.478882e-07
4.249088e-05 -1.662259e-05 -6.604122e-08
4.357120e-05 -1.704231e-05 -2.455757e-07
4.248321e-05 -1.661956e-05 -6.842758e-08
4.359824e-05 -1.705261e-05 -2.429172e-07
4.247532e-05 -1.661645e-05 -7.050145e-08
4.362500e-05 -1.706280e-05 -2.399121e-07
4.246723e-05 -1.661326e-05 -7.226347e-08
4.365144e-05 -1.707287e-05 -2.365596e-07
4.245898e-05 -1.661001e-05 -7.371421e-08
4.367753e-05 -1.708280e-05 -2.328590e-07
4.370324e-05 -1.709258e-05 -2.288095e-07
4.244211e-05 -1.660337e-05 -7.568405e-08
4.372851e-05 -1.710220e-05 -2.244104e-07
4.375332e-05 -1.711163e-05 -2.196610e-07
4.377763e-05 -1.712087e-05 -2.145606e-07
4.241637e-05 -1.659323e-05 -7.631930e-08
4.380141e-05 -1.712990e-05 -2.091085e-07
4.240781e-05 -1.658986e-05 -7.591630e-08
4.382460e-05 -1.713870e-05 -2.033042e-07
4.384719e-05 -1.714727e-05 -1.971471e-07
4.386912e-05 -1.715558e-05 -1.906367e-07
4.238264e-05 -1.657994e-05 -7.289087e-08
4.391090e-05 -1.717138e-05 -1.765552e-07
4.237455e-05 -1.657675e-05 -7.129038e-08
4.393066e-05 -1.717884e-05 -1.689843e-07
4.236667e-05 -1.657364e-05 -6.940589e-08
4.394962e-05 -1.718599e-05 -1.610607e-07
4.235905e-05 -1.657064e-05 -6.725045e-08
4.396774e-05 -1.719281e-05 -1.527860e-07
4.235173e-05 -1.656775e-05 -6.484445e-08
4.398497e-05 -1.719928e-05 -1.441625e-07
4.400128e-05 -1.720539e-05 -1.351944e-07
4.233815e-05 -1.656242e-05 -5.942414e-08
4.401660e-05 -1.721112e-05 -1.258880e-07
4.233194e-05 -1.656000e-05 -5.651138e-08
4.403088e-05 -1.721645e-05 -1.162532e-07
4.404405e-05 -1.722135e-05 -1.063057e-07
4.232066e-05 -1.655560e-05 -5.050244e-08
4.405600e-05 -1.722581e-05 -9.607082e-08
4.406661e-05 -1.722978e-05 -8.558947e-08
4.231081e-05 -1.655178e-05 -4.440032e-08
4.407571e-05 -1.723323e-05 -7.492970e-08
4.230640e-05 -1.655006e-05 -4.134313e-08
4.408312e-05 -1.723614e-05 -6.419472e-08
4.230232e-05 -1.654847e-05 -3.828961e-08
4.408889e-05 -1.723851e-05 -5.350127e-08
4.409319e-05 -1.724036e-05 -4.294107e-08
4.229512e-05 -1.654567e-05 -3.220582e-08
4.409618e-05 -1.724174e-05 -3.257124e-08
4.229199e-05 -1.654445e-05 -2.917915e-08
4.409797e-05 -1.724266e-05 -2.242672e-08
4.228917e-05 -1.654335e-05 -2.616398e-08
4.409862e-05 -1.724315e-05 -1.252932e-08
4.228667e-05 -1.654238e-05 -2.316081e-08
4.409675e-05 -1.724289e-05 6.473297e-09
4.228447e-05 -1.654152e-05 -2.016990e-08
4.409433e-05 -1.724218e-05 1.556348e-08
4.228257e-05 -1.654078e-05 -1.719135e-08
4.409096e-05 -1.724110e-05 2.437359e-08
4.228099e-05 -1.654016e-05 -1.422515e-08
4.408667e-05 -1.723966e-05 3.290100e-08
4.227970e-05 -1.653966e-05 -1.127124e-08
4.408151e-05 -1.723788e-05 4.114396e-08
4.407549e-05 -1.723576e-05 4.910135e-08
4.406866e-05 -1.723332e-05 5.677247e-08
4.227766e-05 -1.653887e-05 -2.482113e-09
4.406104e-05 -1.723057e-05 6.415689e-08
4.227758e-05 -1.653884e-05 4.238078e-10
4.405265e-05 -1.722752e-05 7.125438e-08
4.404354e-05 -1.722419e-05 7.806483e-08
4.227832e-05 -1.653913e-05 6.200677e-09
4.403373e-05 -1.722058e-05 8.458824e-08
4.227913e-05 -1.653945e-05 9.071832e-09
4.402324e-05 -1.721670e-05 9.082464e-08
4.228024e-05 -1.653988e-05 1.193159e-08
4.401212e-05 -1.721258e-05 9.677410e-08
4.228165e-05 -1.654043e-05 1.478003e-08
4.400038e-05 -1.720822e-05 1.024368e-07
4.398807e-05 -1.720363e-05 1.078127e-07
4.228533e-05 -1.654187e-05 2.044325e-08
4.397521e-05 -1.719883e-05 1.129022e-07
4.228761e-05 -1.654276e-05 2.325815e-08
4.396182e-05 -1.719382e-05 1.177052e-07
4.229018e-05 -1.654377e-05 2.606199e-08
4.393363e-05 -1.718325e-05 1.264531e-07
4.229304e-05 -1.654488e-05 2.885484e-08
4.391887e-05 -1.717770e-05 1.303982e-07
4.390372e-05 -1.717201e-05 1.340578e-07
4.229963e-05 -1.654746e-05 3.440774e-08
4.388821e-05 -1.716617e-05 1.374321e-07
4.230335e-05 -1.654891e-05 3.716794e-08
4.387235e-05 -1.716019e-05 1.405213e-07
4.230736e-05 -1.655048e-05 3.991741e-08
4.385619e-05 -1.715410e-05 1.433257e-07
4.231165e-05 -1.655215e-05 4.265628e-08
4.383975e-05 -1.714791e-05 1.458457e-07
4.231622e-05 -1.655394e-05 4.538469e-08
4.382307e-05 -1.714161e-05 1.480816e-07
4.232107e-05 -1.655584e-05 4.810288e-08
4.380617e-05 -1.713523e-05 1.500340e-07
4.232621e-05 -1.655785e-05 5.081114e-08
4.378908e-05 -1.712878e-05 1.517032e-07
4.233162e-05 -1.655996e-05 5.350993e-08
4.377183e-05 -1.712227e-05 1.530902e-07
4.375446e-05 -1.711571e-05 1.541960e-07
4.373699e-05 -1.710911e-05 1.550220e-07
4.234951e-05 -1.656696e-05 6.155765e-08
4.371945e-05 -1.710249e-05 1.555703e-07
4.235602e-05 -1.656950e-05 6.422915e-08
4.370189e-05 -1.709586e-05 1.558438e-07
4.368434e-05 -1.708922e-05 1.558468e-07
4.236983e-05 -1.657490e-05 6.957563e-08
4.364944e-05 -1.707602e-05 1.550711e-07
4.363221e-05 -1.706949e-05 1.543184e-07
4.238471e-05 -1.658070e-05 7.496971e-08
4.361523e-05 -1.706302e-05 1.533537e-07
4.239256e-05 -1.658377e-05 7.770024e-08
4.359860e-05 -1.705665e-05 1.522185e-07
4.240069e-05 -1.658694e-05 8.045806e-08
4.358237e-05 -1.705037e-05 1.509671e-07
4.356648e-05 -1.704419e-05 1.496489e-07
4.241779e-05 -1.659361e-05 8.606332e-08
4.355085e-05 -1.703809e-05 1.482973e-07
4.242678e-05 -1.659712e-05 8.891309e-08
4.353545e-05 -1.703207e-05 1.469322e-07
4.243607e-05 -1.660074e-05 9.179523e-08
4.352023e-05 -1.702611e-05 1.455659e-07
4.350519e-05 -1.702021e-05 1.442061e-07
4.245556e-05 -1.660835e-05 9.765837e-08
4.349030e-05 -1.701438e-05 1.428577e-07
4.246576e-05 -1.661233e-05 1.006400e-07
4.347556e-05 -1.700860e-05 1.415236e-07
4.247628e-05 -1.661644e-05 1.036552e-07
4.346097e-05 -1.700288e-05 1.402060e-07
4.344651e-05 -1.699721e-05 1.389061e-07
4.249827e-05 -1.662502e-05 1.097871e-07
4.343219e-05 -1.699160e-05 1.376247e-07
4.341801e-05 -1.698603e-05 1.363621e-07
4.252156e-05 -1.663411e-05 1.160551e-07
4.340395e-05 -1.698052e-05 1.351187e-07
4.253370e-05 -1.663885e-05 1.192405e-07
4.337623e-05 -1.696965e-05 1.326897e-07
4.254618e-05 -1.664372e-05 1.224602e-07
4.336256e-05 -1.696429e-05 1.315040e-07
4.255899e-05 -1.664872e-05 1.257144e-07
4.334901e-05 -1.695898e-05 1.303375e-07
4.333559e-05 -1.695371e-05 1.291901e-07
4.258566e-05 -1.665913e-05 1.323268e-07
4.332228e-05 -1.694849e-05 1.280617e-07
4.259952e-05 -1.666454e-05 1.356853e-07
4.330910e-05 -1.694332e-05 1.269523e-07
4.329604e-05 -1.693820e-05 1.258616e-07
4.262831e-05 -1.667578e-05 1.425075e-07
4.328309e-05 -1.693312e-05 1.247898e-07
4.264324e-05 -1.668161e-05 1.459716e-07
4.327025e-05 -1.692809e-05 1.237367e-07
4.265855e-05 -1.668758e-05 1.494712e-07
4.325753e-05 -1.692310e-05 1.227023e-07
4.267422e-05 -1.669370e-05 1.530067e-07
4.324491e-05 -1.691815e-05 1.216866e-07
4.323241e-05 -1.691324e-05 1.206894e-07
4.270670e-05 -1.670637e-05 1.601856e-07
4.322001e-05 -1.690838e-05 1.197109e-07
4.272351e-05 -1.671293e-05 1.638296e-07
4.320771e-05 -1.690356e-05 1.187509e-07
4.274071e-05 -1.671964e-05 1.675101e-07
4.319552e-05 -1.689877e-05 1.178094e-07
4.275829e-05 -1.672651e-05 1.712274e-07
4.318343e-05 -1.689403e-05 1.168865e-07
4.277628e-05 -1.673352e-05 1.749816e-07
4.315954e-05 -1.688466e-05 1.150961e-07
4.314774e-05 -1.688003e-05 1.142286e-07
4.313604e-05 -1.687544e-05 1.133795e-07
4.312442e-05 -1.687088e-05 1.125486e-07
4.311289e-05 -1.686635e-05 1.117358e-07
4.310145e-05 -1.686187e-05 1.109409e-07
4.309010e-05 -1.685741e-05 1.101634e-07
4.291366e-05 -1.678711e-05 2.022496e-07
4.307882e-05 -1.685299e-05 1.094029e-07
4.293502e-05 -1.679543e-05 2.062618e-07
4.306763e-05 -1.684859e-05 1.086584e-07
4.305651e-05 -1.684423e-05 1.079285e-07
4.304545e-05 -1.683989e-05 1.072113e-07
4.303445e-05 -1.683558e-05 1.065035e-07
4.302349e-05 -1.683130e-05 1.057997e-07
4.301256e-05 -1.682703e-05 1.050913e-07
4.300163e-05 -1.682278e-05 1.043654e-07
4.299073e-05 -1.681855e-05 1.036083e-07
4.296906e-05 -1.681016e-05 1.019622e-07
4.295834e-05 -1.680602e-05 1.010626e-07
4.294771e-05 -1.680191e-05 1.001084e-07
4.293718e-05 -1.679785e-05 9.909783e-08
4.292675e-05 -1.679382e-05 9.803005e-08
4.291644e-05 -1.678984e-05 9.690442e-08
4.290626e-05 -1.678591e-05 9.572054e-08
4.289620e-05 -1.678203e-05 9.447820e-08
4.288627e-05 -1.677820e-05 9.317727e-08
4.287649e-05 -1.677443e-05 9.181768e-08
4.339040e-05 -1.697368e-05 2.501997e-07
4.286685e-05 -1.677071e-05 9.039943e-08
4.341762e-05 -1.698435e-05 2.497849e-07
4.285737e-05 -1.676705e-05 8.892251e-08
4.284804e-05 -1.676346e-05 8.738696e-08
4.283887e-05 -1.675993e-05 8.579282e-08
4.282988e-05 -1.675646e-05 8.414011e-08
4.282106e-05 -1.675307e-05 8.242888e-08
4.280397e-05 -1.674649e-05 7.883097e-08
4.279571e-05 -1.674331e-05 7.694433e-08
4.278765e-05 -1.674021e-05 7.499925e-08
4.277979e-05 -1.673719e-05 7.299573e-08
4.277215e-05 -1.673426e-05 7.093377e-08
4.276472e-05 -1.673140e-05 6.881335e-08
4.275751e-05 -1.672864e-05 6.663444e-08
4.275052e-05 -1.672596e-05 6.439699e-08
4.274377e-05 -1.672337e-05 6.210098e-08
4.273726e-05 -1.672088e-05 5.974636e-08
4.273099e-05 -1.671848e-05 5.733309e-08
4.272497e-05 -1.671618e-05 5.486116e-08
4.271920e-05 -1.671398e-05 5.233059e-08
4.386460e-05 -1.715994e-05 1.841104e-07
4.271369e-05 -1.671188e-05 4.974147e-08
4.270845e-05 -1.670989e-05 4.709397e-08
4.269879e-05 -1.670622e-05 4.162551e-08
4.269438e-05 -1.670455e-05 3.880610e-08
4.269027e-05 -1.670299e-05 3.593171e-08
4.268646e-05 -1.670155e-05 3.300466e-08
4.268298e-05 -1.670024e-05 3.002852e-08
4.267982e-05 -1.669905e-05 2.700886e-08
4.267704e-05 -1.669799e-05 2.395446e-08
4.267465e-05 -1.669708e-05 2.087939e-08
4.267272e-05 -1.669632e-05 1.780653e-08
4.267131e-05 -1.669571e-05 1.477246e-08
4.267043e-05 -1.669528e-05 1.182368e-08
4.267002e-05 -1.669498e-05 9.001476e-09
4.267000e-05 -1.669482e-05 6.333301e-09
4.267030e-05 -1.669478e-05 3.835885e-09
4.267088e-05 -1.669484e-05 1.519622e-09
4.267171e-05 -1.669500e-05 -6.089300e-10
4.407627e-05 -1.724336e-05 1.722929e-08
4.267401e-05 -1.669555e-05 -4.287551e-09
4.407705e-05 -1.724364e-05 7.622697e-09
4.267542e-05 -1.669592e-05 -5.833107e-09
4.267697e-05 -1.669636e-05 -7.181082e-09
4.267865e-05 -1.669684e-05 -8.330726e-09
4.268044e-05 -1.669737e-05 -9.281583e-09
4.268231e-05 -1.669792e-05 -1.003336e-08
4.268424e-05 -1.669851e-05 -1.058591e-08
4.268622e-05 -1.669911e-05 -1.093916e-08
4.268822e-05 -1.669971e-05 -1.109304e-08