# vtk DataFile Version 2.0
Simplicial Mesh Example
ASCII
DATASET UNSTRUCTURED_GRID
POINTS 11 double
5.000000e+04 6.067494e+02 0.0
5.000000e+04 7.584368e+02 0.0
5.000000e+04 -7.584368e+02 0.0
5.000000e+04 -6.067494e+02 0.0
5.000000e+04 -4.550621e+02 0.0
5.000000e+04 4.550621e+02 0.0
5.000000e+04 0.000000e+00 0.0
5.000000e+04 1.516874e+02 0.0
5.000000e+04 3.033747e+02 0.0
5.000000e+04 -1.516874e+02 0.0
5.000000e+04 -3.033747e+02 0.0
CELLS 10 30
2  0 1
2  2 3
2  3 4
2  5 0
2  6 7
2  7 8
2  8 5
2  9 6
2  10 9
2  4 10
CELL_TYPES 10
3
3
3
3
3
3
3
3
3
3
POINT_DATA 11
VECTORS displacement double
0.000000e+00 0.000000e+00 0.0
0.000000e+00 0.000000e+00 0.0
0.000000e+00 0.000000e+00 0.0
0.000000e+00 0.000000e+00 0.0
0.000000e+00 0.000000e+00 0.0
0.000000e+00 0.000000e+00 0.0
0.000000e+00 0.000000e+00 0.0
0.000000e+00 0.000000e+00 0.0
0.000000e+00 0.000000e+00 0.0
0.000000e+00 0.000000e+00 0.0
0.000000e+00 0.000000e+00 0.0
