# vtk DataFile Version 2.0
Simplicial Mesh Example
ASCII
DATASET UNSTRUCTURED_GRID
POINTS 1001 double
4.900000e+04 6.000000e+02 0.0
4.910000e+04 6.000000e+02 0.0
4.770000e+04 6.000000e+02 0.0
4.780000e+04 6.000000e+02 0.0
4.640000e+04 6.000000e+02 0.0
4.650000e+04 6.000000e+02 0.0
4.510000e+04 6.000000e+02 0.0
4.520000e+04 6.000000e+02 0.0
4.380000e+04 6.000000e+02 0.0
4.390000e+04 6.000000e+02 0.0
4.250000e+04 6.000000e+02 0.0
4.260000e+04 6.000000e+02 0.0
4.120000e+04 6.000000e+02 0.0
4.130000e+04 6.000000e+02 0.0
3.990000e+04 6.000000e+02 0.0
4.000000e+04 6.000000e+02 0.0
3.860000e+04 6.000000e+02 0.0
3.870000e+04 6.000000e+02 0.0
3.730000e+04 6.000000e+02 0.0
3.740000e+04 6.000000e+02 0.0
3.600000e+04 6.000000e+02 0.0
3.610000e+04 6.000000e+02 0.0
3.460000e+04 6.000000e+02 0.0
3.470000e+04 6.000000e+02 0.0
3.330000e+04 6.000000e+02 0.0
3.340000e+04 6.000000e+02 0.0
3.200000e+04 6.000000e+02 0.0
3.210000e+04 6.000000e+02 0.0
3.060000e+04 6.000000e+02 0.0
3.070000e+04 6.000000e+02 0.0
2.930000e+04 6.000000e+02 0.0
2.940000e+04 6.000000e+02 0.0
2.800000e+04 6.000000e+02 0.0
2.810000e+04 6.000000e+02 0.0
2.660000e+04 6.000000e+02 0.0
2.670000e+04 6.000000e+02 0.0
2.520000e+04 6.000000e+02 0.0
2.530000e+04 6.000000e+02 0.0
2.390000e+04 6.000000e+02 0.0
2.400000e+04 6.000000e+02 0.0
2.250000e+04 6.000000e+02 0.0
2.260000e+04 6.000000e+02 0.0
2.110000e+04 6.000000e+02 0.0
2.120000e+04 6.000000e+02 0.0
1.980000e+04 6.000000e+02 0.0
1.990000e+04 6.000000e+02 0.0
1.840000e+04 6.000000e+02 0.0
1.850000e+04 6.000000e+02 0.0
1.700000e+04 6.000000e+02 0.0
1.710000e+04 6.000000e+02 0.0
1.560000e+04 6.000000e+02 0.0
1.570000e+04 6.000000e+02 0.0
1.420000e+04 6.000000e+02 0.0
1.430000e+04 6.000000e+02 0.0
1.270000e+04 6.000000e+02 0.0
1.280000e+04 6.000000e+02 0.0
1.130000e+04 6.000000e+02 0.0
1.140000e+04 6.000000e+02 0.0
9.900000e+03 6.000000e+02 0.0
1.000000e+04 6.000000e+02 0.0
8.500000e+03 6.000000e+02 0.0
8.600000e+03 6.000000e+02 0.0
7.000000e+03 6.000000e+02 0.0
7.100000e+03 6.000000e+02 0.0
5.600000e+03 6.000000e+02 0.0
5.700000e+03 6.000000e+02 0.0
4.100000e+03 6.000000e+02 0.0
4.200000e+03 6.000000e+02 0.0
2.600000e+03 6.000000e+02 0.0
2.700000e+03 6.000000e+02 0.0
1.100000e+03 6.000000e+02 0.0
1.200000e+03 6.000000e+02 0.0
-3.000000e+02 6.000000e+02 0.0
-2.000000e+02 6.000000e+02 0.0
-1.800000e+03 6.000000e+02 0.0
-1.700000e+03 6.000000e+02 0.0
-3.400000e+03 6.000000e+02 0.0
-3.300000e+03 6.000000e+02 0.0
-4.900000e+03 6.000000e+02 0.0
-4.800000e+03 6.000000e+02 0.0
-6.400000e+03 6.000000e+02 0.0
-6.300000e+03 6.000000e+02 0.0
-8.000000e+03 6.000000e+02 0.0
-7.900000e+03 6.000000e+02 0.0
-9.500000e+03 6.000000e+02 0.0
-9.400000e+03 6.000000e+02 0.0
-1.110000e+04 6.000000e+02 0.0
-1.100000e+04 6.000000e+02 0.0
-1.270000e+04 6.000000e+02 0.0
-1.260000e+04 6.000000e+02 0.0
-1.430000e+04 6.000000e+02 0.0
-1.420000e+04 6.000000e+02 0.0
-1.590000e+04 6.000000e+02 0.0
-1.580000e+04 6.000000e+02 0.0
-1.750000e+04 6.000000e+02 0.0
-1.740000e+04 6.000000e+02 0.0
-1.920000e+04 6.000000e+02 0.0
-1.910000e+04 6.000000e+02 0.0
-2.080000e+04 6.000000e+02 0.0
-2.070000e+04 6.000000e+02 0.0
-2.250000e+04 6.000000e+02 0.0
-2.240000e+04 6.000000e+02 0.0
-2.420000e+04 6.000000e+02 0.0
-2.410000e+04 6.000000e+02 0.0
-2.590000e+04 6.000000e+02 0.0
-2.580000e+04 6.000000e+02 0.0
-2.770000e+04 6.000000e+02 0.0
-2.760000e+04 6.000000e+02 0.0
-2.940000e+04 6.000000e+02 0.0
-2.930000e+04 6.000000e+02 0.0
-3.120000e+04 6.000000e+02 0.0
-3.110000e+04 6.000000e+02 0.0
-3.310000e+04 6.000000e+02 0.0
-3.300000e+04 6.000000e+02 0.0
-3.490000e+04 6.000000e+02 0.0
-3.480000e+04 6.000000e+02 0.0
-3.680000e+04 6.000000e+02 0.0
-3.670000e+04 6.000000e+02 0.0
-3.760000e+04 6.000000e+02 0.0
-3.750000e+04 6.000000e+02 0.0
-3.770000e+04 6.000000e+02 0.0
-3.780000e+04 6.000000e+02 0.0
-3.790000e+04 6.000000e+02 0.0
-3.800000e+04 6.000000e+02 0.0
-3.820000e+04 6.000000e+02 0.0
-3.830000e+04 6.000000e+02 0.0
-3.840000e+04 6.000000e+02 0.0
-3.850000e+04 6.000000e+02 0.0
-3.860000e+04 6.000000e+02 0.0
-3.870000e+04 6.000000e+02 0.0
-3.900000e+04 6.000000e+02 0.0
-3.890000e+04 6.000000e+02 0.0
-3.910000e+04 6.000000e+02 0.0
-3.920000e+04 6.000000e+02 0.0
-3.930000e+04 6.000000e+02 0.0
-3.940000e+04 6.000000e+02 0.0
-3.960000e+04 6.000000e+02 0.0
-3.970000e+04 6.000000e+02 0.0
-3.980000e+04 6.000000e+02 0.0
-3.990000e+04 6.000000e+02 0.0
-4.000000e+04 6.000000e+02 0.0
-4.010000e+04 6.000000e+02 0.0
-4.020000e+04 6.000000e+02 0.0
-4.050000e+04 6.000000e+02 0.0
-4.040000e+04 6.000000e+02 0.0
-4.060000e+04 6.000000e+02 0.0
-4.070000e+04 6.000000e+02 0.0
-4.080000e+04 6.000000e+02 0.0
-4.090000e+04 6.000000e+02 0.0
-4.100000e+04 6.000000e+02 0.0
-4.110000e+04 6.000000e+02 0.0
-4.130000e+04 6.000000e+02 0.0
-4.140000e+04 6.000000e+02 0.0
-4.150000e+04 6.000000e+02 0.0
-4.160000e+04 6.000000e+02 0.0
-4.170000e+04 6.000000e+02 0.0
-4.180000e+04 6.000000e+02 0.0
-4.190000e+04 6.000000e+02 0.0
-4.200000e+04 6.000000e+02 0.0
-4.210000e+04 6.000000e+02 0.0
-4.230000e+04 6.000000e+02 0.0
-4.240000e+04 6.000000e+02 0.0
-4.250000e+04 6.000000e+02 0.0
-4.260000e+04 6.000000e+02 0.0
-4.270000e+04 6.000000e+02 0.0
-4.280000e+04 6.000000e+02 0.0
-4.290000e+04 6.000000e+02 0.0
-4.300000e+04 6.000000e+02 0.0
-4.310000e+04 6.000000e+02 0.0
-4.330000e+04 6.000000e+02 0.0
-4.340000e+04 6.000000e+02 0.0
-4.350000e+04 6.000000e+02 0.0
-4.360000e+04 6.000000e+02 0.0
-4.370000e+04 6.000000e+02 0.0
-4.380000e+04 6.000000e+02 0.0
-4.390000e+04 6.000000e+02 0.0
-4.400000e+04 6.000000e+02 0.0
-4.410000e+04 6.000000e+02 0.0
-4.420000e+04 6.000000e+02 0.0
-4.430000e+04 6.000000e+02 0.0
-4.440000e+04 6.000000e+02 0.0
-4.470000e+04 6.000000e+02 0.0
-4.460000e+04 6.000000e+02 0.0
-4.480000e+04 6.000000e+02 0.0
-4.490000e+04 6.000000e+02 0.0
-4.500000e+04 6.000000e+02 0.0
-4.510000e+04 6.000000e+02 0.0
-4.520000e+04 6.000000e+02 0.0
-4.530000e+04 6.000000e+02 0.0
-4.540000e+04 6.000000e+02 0.0
-4.550000e+04 6.000000e+02 0.0
-4.560000e+04 6.000000e+02 0.0
-4.570000e+04 6.000000e+02 0.0
-4.580000e+04 6.000000e+02 0.0
-4.590000e+04 6.000000e+02 0.0
-4.600000e+04 6.000000e+02 0.0
-4.630000e+04 6.000000e+02 0.0
-4.620000e+04 6.000000e+02 0.0
-4.640000e+04 6.000000e+02 0.0
-4.650000e+04 6.000000e+02 0.0
-4.660000e+04 6.000000e+02 0.0
-4.670000e+04 6.000000e+02 0.0
-4.680000e+04 6.000000e+02 0.0
-4.690000e+04 6.000000e+02 0.0
-4.700000e+04 6.000000e+02 0.0
-4.710000e+04 6.000000e+02 0.0
-4.720000e+04 6.000000e+02 0.0
-4.730000e+04 6.000000e+02 0.0
-4.740000e+04 6.000000e+02 0.0
-4.750000e+04 6.000000e+02 0.0
-4.760000e+04 6.000000e+02 0.0
-4.770000e+04 6.000000e+02 0.0
-4.780000e+04 6.000000e+02 0.0
-4.790000e+04 6.000000e+02 0.0
-4.800000e+04 6.000000e+02 0.0
-4.810000e+04 6.000000e+02 0.0
-4.820000e+04 6.000000e+02 0.0
-4.830000e+04 6.000000e+02 0.0
-4.840000e+04 6.000000e+02 0.0
-4.850000e+04 6.000000e+02 0.0
-4.860000e+04 6.000000e+02 0.0
-4.870000e+04 6.000000e+02 0.0
-4.880000e+04 6.000000e+02 0.0
-4.890000e+04 6.000000e+02 0.0
-4.900000e+04 6.000000e+02 0.0
-4.910000e+04 6.000000e+02 0.0
-4.920000e+04 6.000000e+02 0.0
-4.930000e+04 6.000000e+02 0.0
-4.940000e+04 6.000000e+02 0.0
-4.950000e+04 6.000000e+02 0.0
-4.960000e+04 6.000000e+02 0.0
-4.970000e+04 6.000000e+02 0.0
-4.980000e+04 6.000000e+02 0.0
-5.000000e+04 6.000000e+02 0.0
-4.990000e+04 6.000000e+02 0.0
-4.610000e+04 6.000000e+02 0.0
-4.450000e+04 6.000000e+02 0.0
-4.320000e+04 6.000000e+02 0.0
-4.220000e+04 6.000000e+02 0.0
-4.120000e+04 6.000000e+02 0.0
-4.030000e+04 6.000000e+02 0.0
-3.950000e+04 6.000000e+02 0.0
-3.880000e+04 6.000000e+02 0.0
-3.810000e+04 6.000000e+02 0.0
-3.740000e+04 6.000000e+02 0.0
-3.730000e+04 6.000000e+02 0.0
-3.720000e+04 6.000000e+02 0.0
-3.710000e+04 6.000000e+02 0.0
-3.700000e+04 6.000000e+02 0.0
-3.690000e+04 6.000000e+02 0.0
-3.660000e+04 6.000000e+02 0.0
-3.650000e+04 6.000000e+02 0.0
-3.640000e+04 6.000000e+02 0.0
-3.630000e+04 6.000000e+02 0.0
-3.620000e+04 6.000000e+02 0.0
-3.610000e+04 6.000000e+02 0.0
-3.600000e+04 6.000000e+02 0.0
-3.590000e+04 6.000000e+02 0.0
-3.580000e+04 6.000000e+02 0.0
-3.570000e+04 6.000000e+02 0.0
-3.560000e+04 6.000000e+02 0.0
-3.550000e+04 6.000000e+02 0.0
-3.540000e+04 6.000000e+02 0.0
-3.530000e+04 6.000000e+02 0.0
-3.520000e+04 6.000000e+02 0.0
-3.510000e+04 6.000000e+02 0.0
-3.500000e+04 6.000000e+02 0.0
-3.470000e+04 6.000000e+02 0.0
-3.460000e+04 6.000000e+02 0.0
-3.450000e+04 6.000000e+02 0.0
-3.440000e+04 6.000000e+02 0.0
-3.430000e+04 6.000000e+02 0.0
-3.420000e+04 6.000000e+02 0.0
-3.410000e+04 6.000000e+02 0.0
-3.400000e+04 6.000000e+02 0.0
-3.390000e+04 6.000000e+02 0.0
-3.380000e+04 6.000000e+02 0.0
-3.370000e+04 6.000000e+02 0.0
-3.360000e+04 6.000000e+02 0.0
-3.350000e+04 6.000000e+02 0.0
-3.340000e+04 6.000000e+02 0.0
-3.330000e+04 6.000000e+02 0.0
-3.320000e+04 6.000000e+02 0.0
-3.290000e+04 6.000000e+02 0.0
-3.280000e+04 6.000000e+02 0.0
-3.270000e+04 6.000000e+02 0.0
-3.260000e+04 6.000000e+02 0.0
-3.250000e+04 6.000000e+02 0.0
-3.240000e+04 6.000000e+02 0.0
-3.230000e+04 6.000000e+02 0.0
-3.220000e+04 6.000000e+02 0.0
-3.210000e+04 6.000000e+02 0.0
-3.200000e+04 6.000000e+02 0.0
-3.190000e+04 6.000000e+02 0.0
-3.180000e+04 6.000000e+02 0.0
-3.170000e+04 6.000000e+02 0.0
-3.160000e+04 6.000000e+02 0.0
-3.150000e+04 6.000000e+02 0.0
-3.140000e+04 6.000000e+02 0.0
-3.130000e+04 6.000000e+02 0.0
-3.100000e+04 6.000000e+02 0.0
-3.090000e+04 6.000000e+02 0.0
-3.080000e+04 6.000000e+02 0.0
-3.070000e+04 6.000000e+02 0.0
-3.060000e+04 6.000000e+02 0.0
-3.050000e+04 6.000000e+02 0.0
-3.040000e+04 6.000000e+02 0.0
-3.030000e+04 6.000000e+02 0.0
-3.020000e+04 6.000000e+02 0.0
-3.010000e+04 6.000000e+02 0.0
-3.000000e+04 6.000000e+02 0.0
-2.990000e+04 6.000000e+02 0.0
-2.980000e+04 6.000000e+02 0.0
-2.970000e+04 6.000000e+02 0.0
-2.960000e+04 6.000000e+02 0.0
-2.950000e+04 6.000000e+02 0.0
-2.920000e+04 6.000000e+02 0.0
-2.910000e+04 6.000000e+02 0.0
-2.900000e+04 6.000000e+02 0.0
-2.890000e+04 6.000000e+02 0.0
-2.880000e+04 6.000000e+02 0.0
[...]
POINT_DATA 1001
VECTORS displacement double
5.362167e-01 -7.371161e-12 0.0
5.367584e-01 -6.582238e-12 0.0
5.291755e-01 -1.877158e-11 0.0
5.297171e-01 -1.793124e-11 0.0
5.221343e-01 -2.894068e-11 0.0
5.226759e-01 -2.805323e-11 0.0
5.150931e-01 -3.880878e-11 0.0
5.156347e-01 -3.798460e-11 0.0
5.080518e-01 -4.913259e-11 0.0
5.085935e-01 -4.828910e-11 0.0
5.010106e-01 -5.820618e-11 0.0
5.015522e-01 -5.738191e-11 0.0
4.939694e-01 -6.715792e-11 0.0
4.945110e-01 -6.637575e-11 0.0
4.869281e-01 -7.586753e-11 0.0
4.874698e-01 -7.500070e-11 0.0
4.798869e-01 -8.428009e-11 0.0
4.804285e-01 -8.363684e-11 0.0
4.728457e-01 -9.202668e-11 0.0
4.733873e-01 -9.144551e-11 0.0
4.658044e-01 -9.953918e-11 0.0
4.663461e-01 -9.897603e-11 0.0
4.582216e-01 -1.074111e-10 0.0
4.587632e-01 -1.068833e-10 0.0
4.511804e-01 -1.142165e-10 0.0
4.517220e-01 -1.138197e-10 0.0
4.441391e-01 -1.208985e-10 0.0
4.446808e-01 -1.204106e-10 0.0
4.365563e-01 -1.276423e-10 0.0
4.370979e-01 -1.271896e-10 0.0
4.295150e-01 -1.338934e-10 0.0
4.300567e-01 -1.334114e-10 0.0
4.224738e-01 -1.395177e-10 0.0
4.230154e-01 -1.390045e-10 0.0
4.148909e-01 -1.455182e-10 0.0
4.154326e-01 -1.452166e-10 0.0
4.073081e-01 -1.510887e-10 0.0
4.078497e-01 -1.506000e-10 0.0
4.002668e-01 -1.559845e-10 0.0
4.008085e-01 -1.556364e-10 0.0
3.926840e-01 -1.606392e-10 0.0
3.932256e-01 -1.602056e-10 0.0
3.851011e-01 -1.651451e-10 0.0
3.856427e-01 -1.647914e-10 0.0
3.780599e-01 -1.689681e-10 0.0
3.786015e-01 -1.686810e-10 0.0
3.704770e-01 -1.727500e-10 0.0
3.710187e-01 -1.726291e-10 0.0
3.628942e-01 -1.758415e-10 0.0
3.634358e-01 -1.755456e-10 0.0
3.553113e-01 -1.784424e-10 0.0
3.558529e-01 -1.781224e-10 0.0
3.477284e-01 -1.799800e-10 0.0
3.482701e-01 -1.798348e-10 0.0
3.396039e-01 -1.810514e-10 0.0
3.401456e-01 -1.811758e-10 0.0
3.320211e-01 -1.820070e-10 0.0
3.325627e-01 -1.820363e-10 0.0
3.244382e-01 -1.823242e-10 0.0
3.249798e-01 -1.822670e-10 0.0
3.168553e-01 -1.824474e-10 0.0
3.173970e-01 -1.824574e-10 0.0
3.087309e-01 -1.825334e-10 0.0
3.092725e-01 -1.824654e-10 0.0
3.011480e-01 -1.820994e-10 0.0
3.016896e-01 -1.822450e-10 0.0
2.930235e-01 -1.813290e-10 0.0
2.935651e-01 -1.812860e-10 0.0
2.848990e-01 -1.799046e-10 0.0
2.854406e-01 -1.798763e-10 0.0
2.767745e-01 -1.782829e-10 0.0
2.773161e-01 -1.784443e-10 0.0
2.691916e-01 -1.763289e-10 0.0
2.697333e-01 -1.765203e-10 0.0
2.610671e-01 -1.735149e-10 0.0
2.616088e-01 -1.737623e-10 0.0
2.524010e-01 -1.696715e-10 0.0
2.529426e-01 -1.699343e-10 0.0
2.442765e-01 -1.657855e-10 0.0
2.448181e-01 -1.661623e-10 0.0
2.361520e-01 -1.612185e-10 0.0
2.366937e-01 -1.615245e-10 0.0
2.274859e-01 -1.562383e-10 0.0
2.280275e-01 -1.566939e-10 0.0
2.193614e-01 -1.514752e-10 0.0
2.199030e-01 -1.517611e-10 0.0
2.106953e-01 -1.458262e-10 0.0
2.112369e-01 -1.460815e-10 0.0
2.020291e-01 -1.395681e-10 0.0
2.025708e-01 -1.400049e-10 0.0
1.933630e-01 -1.328023e-10 0.0
1.939046e-01 -1.332654e-10 0.0
1.846969e-01 -1.255990e-10 0.0
1.852385e-01 -1.259665e-10 0.0
1.760307e-01 -1.185069e-10 0.0
1.765724e-01 -1.190360e-10 0.0
1.668230e-01 -1.105012e-10 0.0
1.673646e-01 -1.111353e-10 0.0
1.581569e-01 -1.027926e-10 0.0
1.586985e-01 -1.033286e-10 0.0
1.489491e-01 -9.463347e-11 0.0
1.494907e-01 -9.521438e-11 0.0
1.397413e-01 -8.600635e-11 0.0
1.402830e-01 -8.647336e-11 0.0
1.305336e-01 -7.743847e-11 0.0
1.310752e-01 -7.795153e-11 0.0
1.207842e-01 -6.833877e-11 0.0
1.213258e-01 -6.885895e-11 0.0
1.115764e-01 -6.001365e-11 0.0
1.121180e-01 -6.032239e-11 0.0
1.018270e-01 -5.156012e-11 0.0
1.023687e-01 -5.201909e-11 0.0
9.153599e-02 -4.311097e-11 0.0
9.207762e-02 -4.359922e-11 0.0
8.178659e-02 -3.534935e-11 0.0
8.232823e-02 -3.583872e-11 0.0
7.149557e-02 -2.757148e-11 0.0
7.203720e-02 -2.794070e-11 0.0
6.716250e-02 -2.432996e-11 0.0
6.770413e-02 -2.468607e-11 0.0
6.662087e-02 -2.403167e-11 0.0
6.607924e-02 -2.366818e-11 0.0
6.553760e-02 -2.316939e-11 0.0
6.499597e-02 -2.281671e-11 0.0
6.391270e-02 -2.228638e-11 0.0
6.337107e-02 -2.195635e-11 0.0
6.282944e-02 -2.147533e-11 0.0
6.228780e-02 -2.115287e-11 0.0
6.174617e-02 -2.088122e-11 0.0
6.120454e-02 -2.038462e-11 0.0
5.957964e-02 -1.943319e-11 0.0
6.012127e-02 -1.977009e-11 0.0
5.903801e-02 -1.915189e-11 0.0
5.849637e-02 -1.855711e-11 0.0
5.795474e-02 -1.826602e-11 0.0
5.741311e-02 -1.781625e-11 0.0
5.632984e-02 -1.755340e-11 0.0
5.578821e-02 -1.703749e-11 0.0
5.524657e-02 -1.670286e-11 0.0
5.470494e-02 -1.640858e-11 0.0
5.416331e-02 -1.616075e-11 0.0
5.362167e-02 -1.592995e-11 0.0
5.308004e-02 -1.543886e-11 0.0
5.145514e-02 -1.462201e-11 0.0
5.199678e-02 -1.489172e-11 0.0
5.091351e-02 -1.439179e-11 0.0
5.037188e-02 -1.401018e-11 0.0
4.983024e-02 -1.363149e-11 0.0
4.928861e-02 -1.357300e-11 0.0
4.874698e-02 -1.326271e-11 0.0
4.820534e-02 -1.297547e-11 0.0
4.712208e-02 -1.244130e-11 0.0
4.658044e-02 -1.213570e-11 0.0
4.603881e-02 -1.190032e-11 0.0
4.549718e-02 -1.152246e-11 0.0
4.495555e-02 -1.116487e-11 0.0
4.441391e-02 -1.089609e-11 0.0
4.387228e-02 -1.065146e-11 0.0
4.333065e-02 -1.043150e-11 0.0
4.278901e-02 -1.013836e-11 0.0
4.170575e-02 -9.501550e-12 0.0
4.116411e-02 -9.401014e-12 0.0
4.062248e-02 -9.150243e-12 0.0
4.008085e-02 -9.016157e-12 0.0
3.953921e-02 -8.617874e-12 0.0
3.899758e-02 -8.527099e-12 0.0
3.845595e-02 -8.361057e-12 0.0
3.791432e-02 -8.161228e-12 0.0
3.737268e-02 -7.846322e-12 0.0
3.628942e-02 -7.585674e-12 0.0
3.574778e-02 -7.216639e-12 0.0
3.520615e-02 -6.973072e-12 0.0
3.466452e-02 -6.889233e-12 0.0
3.412288e-02 -6.500583e-12 0.0
3.358125e-02 -6.398160e-12 0.0
3.303962e-02 -6.211156e-12 0.0
3.249798e-02 -6.076512e-12 0.0
3.195635e-02 -5.691455e-12 0.0
3.141472e-02 -5.599963e-12 0.0
3.087309e-02 -5.479653e-12 0.0
3.033145e-02 -5.260121e-12 0.0
2.870655e-02 -4.763720e-12 0.0
2.924819e-02 -4.956866e-12 0.0
2.816492e-02 -4.680445e-12 0.0
2.762329e-02 -4.437058e-12 0.0
2.708165e-02 -4.091458e-12 0.0
2.654002e-02 -3.965436e-12 0.0
2.599839e-02 -3.973933e-12 0.0
2.545675e-02 -3.809309e-12 0.0
2.491512e-02 -3.634602e-12 0.0
2.437349e-02 -3.458721e-12 0.0
2.383186e-02 -3.274712e-12 0.0
2.329022e-02 -3.087071e-12 0.0
2.274859e-02 -2.994815e-12 0.0
2.220696e-02 -2.808057e-12 0.0
2.166532e-02 -2.611818e-12 0.0
2.004042e-02 -2.299336e-12 0.0
2.058206e-02 -2.385865e-12 0.0
1.949879e-02 -2.144336e-12 0.0
1.895716e-02 -1.922828e-12 0.0
1.841552e-02 -1.814616e-12 0.0
1.787389e-02 -1.845359e-12 0.0
1.733226e-02 -1.630933e-12 0.0
1.679063e-02 -1.558682e-12 0.0
1.624899e-02 -1.373063e-12 0.0
1.570736e-02 -1.436329e-12 0.0
1.516573e-02 -1.206819e-12 0.0
1.462409e-02 -1.022131e-12 0.0
1.408246e-02 -9.395294e-13 0.0
1.354083e-02 -7.819778e-13 0.0
1.299919e-02 -6.897010e-13 0.0
1.245756e-02 -5.321472e-13 0.0
1.191593e-02 -5.549238e-13 0.0
1.137429e-02 -3.529280e-13 0.0
1.083266e-02 -4.325022e-13 0.0
1.029103e-02 -4.201138e-13 0.0
9.749395e-03 -4.669306e-13 0.0
9.207762e-03 -4.351304e-13 0.0
8.666129e-03 -3.559287e-13 0.0
8.124496e-03 -3.390966e-13 0.0
7.582863e-03 -3.578657e-13 0.0
7.041230e-03 -3.552064e-13 0.0
6.499597e-03 -1.446182e-13 0.0
5.957964e-03 -1.208136e-13 0.0
5.416331e-03 3.969016e-15 0.0
4.874698e-03 6.454383e-14 0.0
4.333065e-03 1.926337e-13 0.0
3.791432e-03 3.745877e-13 0.0
3.249798e-03 3.701162e-13 0.0
2.708165e-03 4.090016e-13 0.0
2.166532e-03 3.351593e-13 0.0
1.624899e-03 3.306847e-13 0.0
1.083266e-03 3.943718e-13 0.0
0.000000e+00 0.000000e+00 0.0
5.416331e-04 3.146750e-13 0.0
2.112369e-02 -2.589690e-12 0.0
2.978982e-02 -5.089772e-12 0.0
3.683105e-02 -7.732298e-12 0.0
4.224738e-02 -9.972238e-12 0.0
4.766371e-02 -1.262993e-11 0.0
5.253841e-02 -1.506308e-11 0.0
5.687147e-02 -1.769721e-11 0.0
6.066290e-02 -2.012803e-11 0.0
6.445434e-02 -2.262148e-11 0.0
6.824577e-02 -2.510737e-11 0.0
6.878740e-02 -2.569279e-11 0.0
6.932903e-02 -2.603919e-11 0.0
6.987067e-02 -2.643252e-11 0.0
7.041230e-02 -2.665111e-11 0.0
7.095393e-02 -2.700972e-11 0.0
7.257883e-02 -2.834734e-11 0.0
7.312046e-02 -2.884401e-11 0.0
7.366210e-02 -2.909099e-11 0.0
7.420373e-02 -2.951867e-11 0.0
7.474536e-02 -2.995317e-11 0.0
7.528700e-02 -3.038996e-11 0.0
7.582863e-02 -3.080542e-11 0.0
7.637026e-02 -3.121094e-11 0.0
7.691190e-02 -3.145442e-11 0.0
7.745353e-02 -3.189384e-11 0.0
7.799516e-02 -3.234033e-11 0.0
7.853680e-02 -3.290055e-11 0.0
7.907843e-02 -3.333842e-11 0.0
7.962006e-02 -3.363927e-11 0.0
8.016169e-02 -3.406222e-11 0.0
8.070333e-02 -3.454195e-11 0.0
8.124496e-02 -3.488707e-11 0.0
8.286986e-02 -3.614779e-11 0.0
8.341149e-02 -3.651118e-11 0.0
8.395313e-02 -3.698400e-11 0.0
8.449476e-02 -3.739734e-11 0.0
8.503639e-02 -3.777101e-11 0.0
8.557803e-02 -3.832838e-11 0.0
8.611966e-02 -3.876506e-11 0.0
8.666129e-02 -3.924299e-11 0.0
8.720292e-02 -3.967828e-11 0.0
8.774456e-02 -4.012442e-11 0.0
8.828619e-02 -4.050820e-11 0.0
8.882782e-02 -4.103951e-11 0.0
8.936946e-02 -4.139568e-11 0.0
8.991109e-02 -4.181871e-11 0.0
9.045272e-02 -4.229102e-11 0.0
9.099436e-02 -4.265028e-11 0.0
9.261926e-02 -4.407446e-11 0.0
9.316089e-02 -4.449694e-11 0.0
9.370252e-02 -4.482375e-11 0.0
9.424415e-02 -4.527305e-11 0.0
9.478579e-02 -4.569761e-11 0.0
9.532742e-02 -4.626302e-11 0.0
9.586905e-02 -4.667848e-11 0.0
9.641069e-02 -4.720307e-11 0.0
9.695232e-02 -4.759019e-11 0.0
9.749395e-02 -4.798732e-11 0.0
9.803559e-02 -4.853417e-11 0.0
9.857722e-02 -4.888790e-11 0.0
9.911885e-02 -4.940633e-11 0.0
9.966049e-02 -4.981772e-11 0.0
1.002021e-01 -5.024646e-11 0.0
1.007438e-01 -5.071467e-11 0.0
1.012854e-01 -5.121439e-11 0.0
1.029103e-01 -5.240194e-11 0.0
1.034519e-01 -5.295453e-11 0.0
1.039936e-01 -5.339586e-11 0.0
1.045352e-01 -5.396003e-11 0.0
1.050768e-01 -5.453294e-11 0.0
1.056184e-01 -5.479551e-11 0.0
1.061601e-01 -5.527262e-11 0.0
1.067017e-01 -5.581291e-11 0.0
1.072433e-01 -5.633436e-11 0.0
1.077850e-01 -5.678968e-11 0.0
1.083266e-01 -5.720219e-11 0.0
1.088682e-01 -5.768983e-11 0.0
1.094099e-01 -5.812613e-11 0.0
1.099515e-01 -5.866190e-11 0.0
1.104931e-01 -5.902528e-11 0.0
1.110348e-01 -5.954204e-11 0.0
1.126597e-01 -6.089493e-11 0.0
1.132013e-01 -6.157756e-11 0.0
1.137429e-01 -6.210050e-11 0.0
1.142846e-01 -6.253867e-11 0.0
1.148262e-01 -6.292615e-11 0.0
1.153678e-01 -6.349812e-11 0.0
1.159095e-01 -6.408566e-11 0.0
1.164511e-01 -6.445909e-11 0.0
1.169927e-01 -6.498874e-11 0.0
1.175344e-01 -6.538368e-11 0.0
1.180760e-01 -6.590481e-11 0.0
1.186176e-01 -6.662739e-11 0.0
1.191593e-01 -6.699363e-11 0.0
1.197009e-01 -6.741574e-11 0.0
1.202425e-01 -6.784790e-11 0.0
1.218674e-01 -6.960595e-11 0.0
1.224091e-01 -7.000101e-11 0.0
1.229507e-01 -7.038094e-11 0.0
1.234923e-01 -7.084115e-11 0.0
1.240340e-01 -7.132483e-11 0.0
1.245756e-01 -7.202563e-11 0.0
1.251172e-01 -7.251981e-11 0.0
1.256589e-01 -7.287635e-11 0.0
1.262005e-01 -7.324273e-11 0.0
1.267421e-01 -7.385606e-11 0.0
1.272838e-01 -7.440353e-11 0.0
1.278254e-01 -7.491753e-11 0.0
1.283670e-01 -7.529047e-11 0.0
1.289087e-01 -7.581559e-11 0.0
1.294503e-01 -7.634000e-11 0.0
1.299919e-01 -7.684449e-11 0.0
1.316168e-01 -7.837875e-11 0.0
1.321585e-01 -7.888691e-11 0.0
1.327001e-01 -7.938931e-11 0.0
1.332417e-01 -8.001122e-11 0.0
1.337834e-01 -8.045706e-11 0.0
1.343250e-01 -8.100565e-11 0.0
1.348666e-01 -8.153792e-11 0.0
1.354083e-01 -8.201612e-11 0.0
1.359499e-01 -8.257214e-11 0.0
1.364915e-01 -8.317859e-11 0.0
1.370332e-01 -8.366748e-11 0.0
1.375748e-01 -8.415621e-11 0.0
1.381164e-01 -8.453327e-11 0.0
1.386581e-01 -8.496635e-11 0.0
1.391997e-01 -8.549960e-11 0.0
1.408246e-01 -8.717640e-11 0.0
1.413662e-01 -8.753347e-11 0.0
1.419079e-01 -8.805227e-11 0.0
1.424495e-01 -8.852536e-11 0.0
1.429911e-01 -8.900127e-11 0.0
1.435328e-01 -8.949846e-11 0.0
1.440744e-01 -9.024065e-11 0.0
1.446160e-01 -9.074119e-11 0.0
1.451577e-01 -9.122811e-11 0.0
1.456993e-01 -9.162413e-11 0.0
1.462409e-01 -9.219199e-11 0.0
1.467826e-01 -9.262713e-11 0.0
1.473242e-01 -9.315461e-11 0.0
1.478658e-01 -9.363827e-11 0.0
1.484075e-01 -9.403538e-11 0.0
1.500324e-01 -9.565425e-11 0.0
1.505740e-01 -9.612759e-11 0.0
1.511156e-01 -9.649580e-11 0.0
1.516573e-01 -9.698258e-11 0.0
1.521989e-01 -9.756514e-11 0.0
1.527405e-01 -9.814866e-11 0.0
1.532822e-01 -9.856431e-11 0.0
1.538238e-01 -9.909741e-11 0.0
1.543654e-01 -9.954852e-11 0.0
1.549071e-01 -9.989045e-11 0.0
1.554487e-01 -1.003813e-10 0.0
1.559903e-01 -1.010230e-10 0.0
1.565320e-01 -1.013903e-10 0.0
1.570736e-01 -1.019769e-10 0.0
1.576152e-01 -1.022903e-10 0.0
1.592401e-01 -1.039374e-10 0.0
1.597818e-01 -1.044358e-10 0.0
1.603234e-01 -1.048486e-10 0.0
1.608650e-01 -1.053903e-10 0.0
1.614067e-01 -1.058743e-10 0.0
1.619483e-01 -1.062954e-10 0.0
1.624899e-01 -1.069267e-10 0.0
1.630316e-01 -1.072777e-10 0.0
1.635732e-01 -1.076991e-10 0.0
1.641148e-01 -1.081904e-10 0.0
1.646565e-01 -1.086076e-10 0.0
1.651981e-01 -1.091481e-10 0.0
1.657397e-01 -1.095059e-10 0.0
1.662814e-01 -1.100055e-10 0.0
1.679063e-01 -1.114878e-10 0.0
1.684479e-01 -1.120119e-10 0.0
1.689895e-01 -1.123996e-10 0.0
1.695312e-01 -1.130236e-10 0.0
1.700728e-01 -1.134335e-10 0.0
1.706144e-01 -1.139717e-10 0.0
1.711561e-01 -1.144357e-10 0.0
1.716977e-01 -1.149597e-10 0.0
1.722393e-01 -1.154278e-10 0.0
1.727810e-01 -1.159595e-10 0.0
1.733226e-01 -1.164565e-10 0.0
1.738642e-01 -1.167032e-10 0.0
1.744058e-01 -1.171035e-10 0.0
1.749475e-01 -1.176521e-10 0.0
1.754891e-01 -1.180542e-10 0.0
1.771140e-01 -1.193565e-10 0.0
1.776556e-01 -1.199183e-10 0.0
1.781973e-01 -1.204299e-10 0.0
1.787389e-01 -1.209657e-10 0.0
1.792805e-01 -1.213202e-10 0.0
1.798222e-01 -1.217596e-10 0.0
1.803638e-01 -1.223356e-10 0.0
1.809054e-01 -1.226686e-10 0.0
1.814471e-01 -1.232092e-10 0.0
1.819887e-01 -1.235896e-10 0.0
1.825303e-01 -1.238813e-10 0.0
1.830720e-01 -1.243787e-10 0.0
1.836136e-01 -1.247553e-10 0.0
1.841552e-01 -1.251576e-10 0.0
1.857801e-01 -1.266289e-10 0.0
1.863218e-01 -1.269814e-10 0.0
1.868634e-01 -1.274651e-10 0.0
1.874050e-01 -1.278733e-10 0.0
1.879467e-01 -1.283159e-10 0.0
1.884883e-01 -1.289236e-10 0.0
1.890299e-01 -1.293234e-10 0.0
1.895716e-01 -1.297118e-10 0.0
1.901132e-01 -1.302970e-10 0.0
1.906548e-01 -1.307543e-10 0.0
1.911965e-01 -1.311146e-10 0.0
1.917381e-01 -1.316965e-10 0.0
1.922797e-01 -1.319796e-10 0.0
1.928214e-01 -1.322716e-10 0.0
1.944463e-01 -1.337389e-10 0.0
1.949879e-01 -1.341899e-10 0.0
1.955295e-01 -1.344385e-10 0.0
1.960712e-01 -1.347726e-10 0.0
1.966128e-01 -1.351873e-10 0.0
1.971544e-01 -1.358461e-10 0.0
1.976961e-01 -1.363825e-10 0.0
1.982377e-01 -1.367139e-10 0.0
1.987793e-01 -1.372545e-10 0.0
1.993210e-01 -1.376633e-10 0.0
1.998626e-01 -1.379720e-10 0.0
2.004042e-01 -1.383231e-10 0.0
2.009459e-01 -1.388143e-10 0.0
2.014875e-01 -1.392283e-10 0.0
2.031124e-01 -1.402653e-10 0.0
2.036540e-01 -1.406856e-10 0.0
2.041957e-01 -1.412297e-10 0.0
2.047373e-01 -1.414962e-10 0.0
2.052789e-01 -1.419718e-10 0.0
2.058206e-01 -1.422041e-10 0.0
2.063622e-01 -1.426795e-10 0.0
2.069038e-01 -1.431851e-10 0.0
2.074455e-01 -1.435505e-10 0.0
2.079871e-01 -1.440555e-10 0.0
2.085287e-01 -1.443587e-10 0.0
2.090704e-01 -1.446472e-10 0.0
2.096120e-01 -1.450981e-10 0.0
2.101536e-01 -1.454508e-10 0.0
2.117785e-01 -1.465094e-10 0.0
2.123202e-01 -1.470126e-10 0.0
2.128618e-01 -1.471601e-10 0.0
2.134034e-01 -1.476637e-10 0.0
2.139451e-01 -1.481458e-10 0.0
2.144867e-01 -1.483373e-10 0.0
2.150283e-01 -1.488659e-10 0.0
2.155700e-01 -1.491842e-10 0.0
2.161116e-01 -1.494584e-10 0.0
2.166532e-01 -1.498334e-10 0.0
2.171949e-01 -1.501369e-10 0.0
2.177365e-01 -1.505306e-10 0.0
2.182781e-01 -1.509456e-10 0.0
2.188198e-01 -1.512569e-10 0.0
2.204447e-01 -1.521498e-10 0.0
2.209863e-01 -1.523702e-10 0.0
2.215279e-01 -1.527886e-10 0.0
2.220696e-01 -1.531221e-10 0.0
2.226112e-01 -1.532756e-10 0.0
2.231528e-01 -1.536035e-10 0.0
2.236945e-01 -1.540602e-10 0.0
2.242361e-01 -1.542079e-10 0.0
2.247777e-01 -1.547213e-10 0.0
2.253194e-01 -1.548962e-10 0.0
2.258610e-01 -1.551788e-10 0.0
2.264026e-01 -1.556354e-10 0.0
2.269443e-01 -1.558132e-10 0.0
2.285692e-01 -1.570005e-10 0.0
2.291108e-01 -1.572840e-10 0.0
2.296524e-01 -1.576713e-10 0.0
2.301941e-01 -1.580625e-10 0.0
2.307357e-01 -1.583832e-10 0.0
2.312773e-01 -1.587166e-10 0.0
2.318190e-01 -1.590439e-10 0.0
2.323606e-01 -1.591355e-10 0.0
2.329022e-01 -1.594000e-10 0.0
2.334439e-01 -1.598844e-10 0.0
2.339855e-01 -1.600408e-10 0.0
2.345271e-01 -1.603606e-10 0.0
2.350688e-01 -1.606191e-10 0.0
2.356104e-01 -1.609460e-10 0.0
2.372353e-01 -1.617655e-10 0.0
2.377769e-01 -1.623229e-10 0.0
2.383186e-01 -1.625677e-10 0.0
2.388602e-01 -1.628454e-10 0.0
2.394018e-01 -1.630823e-10 0.0
2.399435e-01 -1.634439e-10 0.0
2.404851e-01 -1.636226e-10 0.0
2.410267e-01 -1.639496e-10 0.0
2.415684e-01 -1.643014e-10 0.0
2.421100e-01 -1.646220e-10 0.0
2.426516e-01 -1.650693e-10 0.0
2.431933e-01 -1.651980e-10 0.0
2.437349e-01 -1.654279e-10 0.0
2.453598e-01 -1.664324e-10 0.0
2.459014e-01 -1.667074e-10 0.0
2.464430e-01 -1.669160e-10 0.0
2.469847e-01 -1.672520e-10 0.0
2.475263e-01 -1.674831e-10 0.0
2.480679e-01 -1.676840e-10 0.0
2.486096e-01 -1.679375e-10 0.0
2.491512e-01 -1.683076e-10 0.0
2.496928e-01 -1.684108e-10 0.0
2.502345e-01 -1.687770e-10 0.0
2.507761e-01 -1.689385e-10 0.0
2.513177e-01 -1.691532e-10 0.0
2.518594e-01 -1.695302e-10 0.0
2.534843e-01 -1.700670e-10 0.0
2.540259e-01 -1.703218e-10 0.0
2.545675e-01 -1.707015e-10 0.0
2.551092e-01 -1.709142e-10 0.0
2.556508e-01 -1.712282e-10 0.0
2.561924e-01 -1.714346e-10 0.0
2.567341e-01 -1.714863e-10 0.0
2.572757e-01 -1.717729e-10 0.0
2.578173e-01 -1.722022e-10 0.0
2.583590e-01 -1.724127e-10 0.0
2.589006e-01 -1.726371e-10 0.0
2.594422e-01 -1.728372e-10 0.0
2.599839e-01 -1.729982e-10 0.0
2.605255e-01 -1.732169e-10 0.0
2.621504e-01 -1.738848e-10 0.0
2.626920e-01 -1.740759e-10 0.0
2.632337e-01 -1.743603e-10 0.0
2.637753e-01 -1.745355e-10 0.0
2.643169e-01 -1.746901e-10 0.0
2.648586e-01 -1.749639e-10 0.0
2.654002e-01 -1.750922e-10 0.0
2.659418e-01 -1.752902e-10 0.0
2.664835e-01 -1.754467e-10 0.0
2.670251e-01 -1.758093e-10 0.0
2.675667e-01 -1.757844e-10 0.0
2.681084e-01 -1.758318e-10 0.0
2.686500e-01 -1.760998e-10 0.0
2.702749e-01 -1.767689e-10 0.0
2.708165e-01 -1.767545e-10 0.0
2.713582e-01 -1.769661e-10 0.0
2.718998e-01 -1.772711e-10 0.0
2.724414e-01 -1.772302e-10 0.0
2.729831e-01 -1.772268e-10 0.0
2.735247e-01 -1.776395e-10 0.0
2.740663e-01 -1.777112e-10 0.0
2.746080e-01 -1.777566e-10 0.0
2.751496e-01 -1.779050e-10 0.0
2.756912e-01 -1.779498e-10 0.0
2.762329e-01 -1.779514e-10 0.0
2.778578e-01 -1.785864e-10 0.0
2.783994e-01 -1.786195e-10 0.0
2.789410e-01 -1.788002e-10 0.0
2.794827e-01 -1.787090e-10 0.0
2.800243e-01 -1.789465e-10 0.0
2.805659e-01 -1.791117e-10 0.0
2.811076e-01 -1.792525e-10 0.0
2.816492e-01 -1.792945e-10 0.0
2.821908e-01 -1.794937e-10 0.0
2.827325e-01 -1.793714e-10 0.0
2.832741e-01 -1.794666e-10 0.0
2.838157e-01 -1.797780e-10 0.0
2.843574e-01 -1.799547e-10 0.0
2.859823e-01 -1.801558e-10 0.0
2.865239e-01 -1.802265e-10 0.0
2.870655e-01 -1.804316e-10 0.0
2.876072e-01 -1.805547e-10 0.0
2.881488e-01 -1.805214e-10 0.0
2.886904e-01 -1.804711e-10 0.0
2.892321e-01 -1.805039e-10 0.0
2.897737e-01 -1.806785e-10 0.0
2.903153e-01 -1.807701e-10 0.0
2.908570e-01 -1.809168e-10 0.0
2.913986e-01 -1.810863e-10 0.0
2.919402e-01 -1.812122e-10 0.0
2.924819e-01 -1.813066e-10 0.0
2.941068e-01 -1.814504e-10 0.0
2.946484e-01 -1.815884e-10 0.0
2.951900e-01 -1.818044e-10 0.0
2.957317e-01 -1.815876e-10 0.0
2.962733e-01 -1.816491e-10 0.0
2.968149e-01 -1.818048e-10 0.0
2.973566e-01 -1.819741e-10 0.0
2.978982e-01 -1.820220e-10 0.0
2.984398e-01 -1.820821e-10 0.0
2.989815e-01 -1.818969e-10 0.0
2.995231e-01 -1.819431e-10 0.0
3.000647e-01 -1.819722e-10 0.0
3.006064e-01 -1.822336e-10 0.0
3.022313e-01 -1.822464e-10 0.0
3.027729e-01 -1.823964e-10 0.0
3.033145e-01 -1.823043e-10 0.0
3.038562e-01 -1.824338e-10 0.0
3.043978e-01 -1.823504e-10 0.0
3.049394e-01 -1.827052e-10 0.0
3.054811e-01 -1.825542e-10 0.0
3.060227e-01 -1.825865e-10 0.0
3.065643e-01 -1.825062e-10 0.0
3.071060e-01 -1.825548e-10 0.0
3.076476e-01 -1.823961e-10 0.0
3.081892e-01 -1.824484e-10 0.0
3.098141e-01 -1.824863e-10 0.0
3.103558e-01 -1.825631e-10 0.0
3.108974e-01 -1.826329e-10 0.0
3.114390e-01 -1.825089e-10 0.0
3.119807e-01 -1.824977e-10 0.0
3.125223e-01 -1.824521e-10 0.0
3.130639e-01 -1.825833e-10 0.0
3.136055e-01 -1.825546e-10 0.0
3.141472e-01 -1.825335e-10 0.0
3.146888e-01 -1.824652e-10 0.0