# vtk DataFile Version 2.0
Simplicial Mesh Example
ASCII
DATASET UNSTRUCTURED_GRID
POINTS 1001 double
4.900000e+04 7.662070e+02 0.0
4.910000e+04 7.656602e+02 0.0
4.770000e+04 7.697825e+02 0.0
4.780000e+04 7.696986e+02 0.0
4.640000e+04 7.692400e+02 0.0
4.650000e+04 7.693475e+02 0.0
4.510000e+04 7.680951e+02 0.0
4.520000e+04 7.681320e+02 0.0
4.380000e+04 7.683908e+02 0.0
4.390000e+04 7.683279e+02 0.0
4.250000e+04 7.694825e+02 0.0
4.260000e+04 7.693914e+02 0.0
4.120000e+04 7.704394e+02 0.0
4.130000e+04 7.703918e+02 0.0
3.990000e+04 7.704111e+02 0.0
4.000000e+04 7.704570e+02 0.0
3.860000e+04 7.691863e+02 0.0
3.870000e+04 7.693209e+02 0.0
3.730000e+04 7.668600e+02 0.0
3.740000e+04 7.670758e+02 0.0
3.600000e+04 7.635330e+02 0.0
3.610000e+04 7.638202e+02 0.0
3.460000e+04 7.593845e+02 0.0
3.470000e+04 7.596723e+02 0.0
3.330000e+04 7.562073e+02 0.0
3.340000e+04 7.564005e+02 0.0
3.200000e+04 7.549012e+02 0.0
3.210000e+04 7.549082e+02 0.0
3.060000e+04 7.564708e+02 0.0
3.070000e+04 7.562840e+02 0.0
2.930000e+04 7.590785e+02 0.0
2.940000e+04 7.588936e+02 0.0
2.800000e+04 7.604107e+02 0.0
2.810000e+04 7.604064e+02 0.0
2.660000e+04 7.578728e+02 0.0
2.670000e+04 7.582168e+02 0.0
2.520000e+04 7.515456e+02 0.0
2.530000e+04 7.520510e+02 0.0
2.390000e+04 7.453107e+02 0.0
2.400000e+04 7.457339e+02 0.0
2.250000e+04 7.416175e+02 0.0
2.260000e+04 7.417065e+02 0.0
2.110000e+04 7.427965e+02 0.0
2.120000e+04 7.425988e+02 0.0
1.980000e+04 7.459673e+02 0.0
1.990000e+04 7.457152e+02 0.0
1.840000e+04 7.484996e+02 0.0
1.850000e+04 7.484170e+02 0.0
1.700000e+04 7.474093e+02 0.0
1.710000e+04 7.476103e+02 0.0
1.560000e+04 7.432912e+02 0.0
1.570000e+04 7.436446e+02 0.0
1.420000e+04 7.380774e+02 0.0
1.430000e+04 7.384449e+02 0.0
1.270000e+04 7.333947e+02 0.0
1.280000e+04 7.336467e+02 0.0
1.130000e+04 7.309130e+02 0.0
1.140000e+04 7.310218e+02 0.0
9.900000e+03 7.306203e+02 0.0
1.000000e+04 7.305613e+02 0.0
8.500000e+03 7.328400e+02 0.0
8.600000e+03 7.325966e+02 0.0
7.000000e+03 7.376551e+02 0.0
7.100000e+03 7.372801e+02 0.0
5.600000e+03 7.433109e+02 0.0
5.700000e+03 7.428939e+02 0.0
4.100000e+03 7.493446e+02 0.0
4.200000e+03 7.489694e+02 0.0
2.600000e+03 7.540089e+02 0.0
2.700000e+03 7.537690e+02 0.0
1.100000e+03 7.558841e+02 0.0
1.200000e+03 7.558744e+02 0.0
-3.000000e+02 7.538696e+02 0.0
-2.000000e+02 7.541547e+02 0.0
-1.800000e+03 7.480626e+02 0.0
-1.700000e+03 7.484905e+02 0.0
-3.400000e+03 7.423724e+02 0.0
-3.300000e+03 7.426089e+02 0.0
-4.900000e+03 7.424278e+02 0.0
-4.800000e+03 7.421765e+02 0.0
-6.400000e+03 7.494207e+02 0.0
-6.300000e+03 7.488208e+02 0.0
-8.000000e+03 7.594350e+02 0.0
-7.900000e+03 7.588482e+02 0.0
-9.500000e+03 7.657132e+02 0.0
-9.400000e+03 7.654837e+02 0.0
-1.110000e+04 7.663039e+02 0.0
-1.100000e+04 7.664005e+02 0.0
-1.270000e+04 7.636623e+02 0.0
-1.260000e+04 7.638514e+02 0.0
-1.430000e+04 7.614616e+02 0.0
-1.420000e+04 7.615339e+02 0.0
-1.590000e+04 7.611575e+02 0.0
-1.580000e+04 7.611440e+02 0.0
-1.750000e+04 7.614344e+02 0.0
-1.740000e+04 7.614282e+02 0.0
-1.920000e+04 7.607814e+02 0.0
-1.910000e+04 7.608629e+02 0.0
-2.080000e+04 7.588794e+02 0.0
-2.070000e+04 7.590269e+02 0.0
-2.250000e+04 7.559722e+02 0.0
-2.240000e+04 7.561593e+02 0.0
-2.420000e+04 7.525989e+02 0.0
-2.410000e+04 7.528084e+02 0.0
-2.590000e+04 7.487692e+02 0.0
-2.580000e+04 7.490099e+02 0.0
-2.770000e+04 7.440501e+02 0.0
-2.760000e+04 7.443301e+02 0.0
-2.940000e+04 7.396356e+02 0.0
-2.930000e+04 7.398546e+02 0.0
-3.120000e+04 7.375620e+02 0.0
-3.110000e+04 7.375588e+02 0.0
-3.310000e+04 7.410514e+02 0.0
-3.300000e+04 7.407222e+02 0.0
-3.490000e+04 7.484994e+02 0.0
-3.480000e+04 7.480412e+02 0.0
-3.680000e+04 7.567781e+02 0.0
-3.670000e+04 7.563934e+02 0.0
-3.760000e+04 7.595972e+02 0.0
-3.750000e+04 7.592695e+02 0.0
-3.770000e+04 7.599182e+02 0.0
-3.780000e+04 7.602323e+02 0.0
-3.790000e+04 7.605397e+02 0.0
-3.800000e+04 7.608405e+02 0.0
-3.820000e+04 7.614222e+02 0.0
-3.830000e+04 7.617032e+02 0.0
-3.840000e+04 7.619778e+02 0.0
-3.850000e+04 7.622461e+02 0.0
-3.860000e+04 7.625080e+02 0.0
-3.870000e+04 7.627636e+02 0.0
-3.900000e+04 7.634936e+02 0.0
-3.890000e+04 7.632564e+02 0.0
-3.910000e+04 7.637248e+02 0.0
-3.920000e+04 7.639500e+02 0.0
-3.930000e+04 7.641693e+02 0.0
-3.940000e+04 7.643828e+02 0.0
-3.960000e+04 7.647923e+02 0.0
-3.970000e+04 7.649886e+02 0.0
-3.980000e+04 7.651792e+02 0.0
-3.990000e+04 7.653643e+02 0.0
-4.000000e+04 7.655438e+02 0.0
-4.010000e+04 7.657180e+02 0.0
-4.020000e+04 7.658867e+02 0.0
-4.050000e+04 7.663612e+02 0.0
-4.040000e+04 7.662083e+02 0.0
-4.060000e+04 7.665090e+02 0.0
-4.070000e+04 7.666518e+02 0.0
-4.080000e+04 7.667894e+02 0.0
-4.090000e+04 7.669222e+02 0.0
-4.100000e+04 7.670499e+02 0.0
-4.110000e+04 7.671728e+02 0.0
-4.130000e+04 7.674037e+02 0.0
-4.140000e+04 7.675116e+02 0.0
-4.150000e+04 7.676146e+02 0.0
-4.160000e+04 7.677125e+02 0.0
-4.170000e+04 7.678053e+02 0.0
-4.180000e+04 7.678931e+02 0.0
-4.190000e+04 7.679758e+02 0.0
-4.200000e+04 7.680533e+02 0.0
-4.210000e+04 7.681257e+02 0.0
-4.230000e+04 7.682551e+02 0.0
-4.240000e+04 7.683119e+02 0.0
-4.250000e+04 7.683635e+02 0.0
-4.260000e+04 7.684099e+02 0.0
-4.270000e+04 7.684510e+02 0.0
-4.280000e+04 7.684869e+02 0.0
-4.290000e+04 7.685174e+02 0.0
-4.300000e+04 7.685425e+02 0.0
-4.310000e+04 7.685623e+02 0.0
-4.330000e+04 7.685858e+02 0.0
-4.340000e+04 7.685894e+02 0.0
-4.350000e+04 7.685876e+02 0.0
-4.360000e+04 7.685803e+02 0.0
-4.370000e+04 7.685675e+02 0.0
-4.380000e+04 7.685492e+02 0.0
-4.390000e+04 7.685254e+02 0.0
-4.400000e+04 7.684960e+02 0.0
-4.410000e+04 7.684611e+02 0.0
-4.420000e+04 7.684205e+02 0.0
-4.430000e+04 7.683744e+02 0.0
-4.440000e+04 7.683226e+02 0.0
-4.470000e+04 7.681332e+02 0.0
-4.460000e+04 7.682020e+02 0.0
-4.480000e+04 7.680586e+02 0.0
-4.490000e+04 7.679783e+02 0.0
-4.500000e+04 7.678923e+02 0.0
-4.510000e+04 7.678004e+02 0.0
-4.520000e+04 7.677028e+02 0.0
-4.530000e+04 7.675993e+02 0.0
-4.540000e+04 7.674899e+02 0.0
-4.550000e+04 7.673747e+02 0.0
-4.560000e+04 7.672539e+02 0.0
-4.570000e+04 7.671281e+02 0.0
-4.580000e+04 7.669977e+02 0.0
-4.590000e+04 7.668635e+02 0.0
-4.600000e+04 7.667260e+02 0.0
-4.630000e+04 7.662992e+02 0.0
-4.620000e+04 7.664433e+02 0.0
-4.640000e+04 7.661542e+02 0.0
-4.650000e+04 7.660087e+02 0.0
-4.660000e+04 7.658634e+02 0.0
-4.670000e+04 7.657188e+02 0.0
-4.680000e+04 7.655755e+02 0.0
-4.690000e+04 7.654341e+02 0.0
-4.700000e+04 7.652951e+02 0.0
-4.710000e+04 7.651592e+02 0.0
-4.720000e+04 7.650268e+02 0.0
-4.730000e+04 7.648987e+02 0.0
-4.740000e+04 7.647753e+02 0.0
-4.750000e+04 7.646572e+02 0.0
-4.760000e+04 7.645450e+02 0.0
-4.770000e+04 7.644394e+02 0.0
-4.780000e+04 7.643408e+02 0.0
-4.790000e+04 7.642498e+02 0.0
-4.800000e+04 7.641671e+02 0.0
-4.810000e+04 7.640932e+02 0.0
-4.820000e+04 7.640286e+02 0.0
-4.830000e+04 7.639740e+02 0.0
-4.840000e+04 7.639299e+02 0.0
-4.850000e+04 7.638969e+02 0.0
-4.860000e+04 7.638756e+02 0.0
-4.870000e+04 7.638665e+02 0.0
-4.880000e+04 7.638703e+02 0.0
-4.890000e+04 7.638875e+02 0.0
-4.900000e+04 7.639187e+02 0.0
-4.910000e+04 7.639645e+02 0.0
-4.920000e+04 7.640253e+02 0.0
-4.930000e+04 7.641020e+02 0.0
-4.940000e+04 7.641949e+02 0.0
-4.950000e+04 7.643046e+02 0.0
-4.960000e+04 7.644318e+02 0.0
-4.970000e+04 7.645771e+02 0.0
-4.980000e+04 7.647409e+02 0.0
-5.000000e+04 7.651267e+02 0.0
-4.990000e+04 7.649240e+02 0.0
-4.610000e+04 7.665857e+02 0.0
-4.450000e+04 7.682652e+02 0.0
-4.320000e+04 7.685768e+02 0.0
-4.220000e+04 7.681930e+02 0.0
-4.120000e+04 7.672907e+02 0.0
-4.030000e+04 7.660501e+02 0.0
-3.950000e+04 7.645904e+02 0.0
-3.880000e+04 7.630131e+02 0.0
-3.810000e+04 7.611346e+02 0.0
-3.740000e+04 7.589348e+02 0.0
-3.730000e+04 7.585931e+02 0.0
-3.720000e+04 7.582444e+02 0.0
-3.710000e+04 7.578886e+02 0.0
-3.700000e+04 7.575257e+02 0.0
-3.690000e+04 7.571555e+02 0.0
-3.660000e+04 7.560013e+02 0.0
-3.650000e+04 7.556018e+02 0.0
-3.640000e+04 7.551947e+02 0.0
-3.630000e+04 7.547802e+02 0.0
-3.620000e+04 7.543584e+02 0.0
-3.610000e+04 7.539301e+02 0.0
-3.600000e+04 7.534958e+02 0.0
-3.590000e+04 7.530562e+02 0.0
-3.580000e+04 7.526118e+02 0.0
-3.570000e+04 7.521632e+02 0.0
-3.560000e+04 7.517112e+02 0.0
-3.550000e+04 7.512562e+02 0.0
-3.540000e+04 7.507989e+02 0.0
-3.530000e+04 7.503400e+02 0.0
-3.520000e+04 7.498799e+02 0.0
-3.510000e+04 7.494194e+02 0.0
-3.500000e+04 7.489590e+02 0.0
-3.470000e+04 7.475849e+02 0.0
-3.460000e+04 7.471312e+02 0.0
-3.450000e+04 7.466807e+02 0.0
-3.440000e+04 7.462340e+02 0.0
-3.430000e+04 7.457917e+02 0.0
-3.420000e+04 7.453545e+02 0.0
-3.410000e+04 7.449229e+02 0.0
-3.400000e+04 7.444975e+02 0.0
-3.390000e+04 7.440790e+02 0.0
-3.380000e+04 7.436680e+02 0.0
-3.370000e+04 7.432651e+02 0.0
-3.360000e+04 7.428708e+02 0.0
-3.350000e+04 7.424859e+02 0.0
-3.340000e+04 7.421109e+02 0.0
-3.330000e+04 7.417464e+02 0.0
-3.320000e+04 7.413930e+02 0.0
-3.290000e+04 7.404059e+02 0.0
-3.280000e+04 7.401032e+02 0.0
-3.270000e+04 7.398147e+02 0.0
-3.260000e+04 7.395410e+02 0.0
-3.250000e+04 7.392827e+02 0.0
-3.240000e+04 7.390405e+02 0.0
-3.230000e+04 7.388148e+02 0.0
-3.220000e+04 7.386065e+02 0.0
-3.210000e+04 7.384160e+02 0.0
-3.200000e+04 7.382439e+02 0.0
-3.190000e+04 7.380909e+02 0.0
-3.180000e+04 7.379577e+02 0.0
-3.170000e+04 7.378444e+02 0.0
-3.160000e+04 7.377507e+02 0.0
-3.150000e+04 7.376762e+02 0.0
-3.140000e+04 7.376202e+02 0.0
-3.130000e+04 7.375823e+02 0.0
-3.100000e+04 7.375722e+02 0.0
-3.090000e+04 7.376018e+02 0.0
-3.080000e+04 7.376469e+02 0.0
-3.070000e+04 7.377071e+02 0.0
-3.060000e+04 7.377819e+02 0.0
-3.050000e+04 7.378707e+02 0.0
-3.040000e+04 7.379732e+02 0.0
-3.030000e+04 7.380888e+02 0.0
-3.020000e+04 7.382170e+02 0.0
-3.010000e+04 7.383572e+02 0.0
-3.000000e+04 7.385091e+02 0.0
-2.990000e+04 7.386720e+02 0.0
-2.980000e+04 7.388456e+02 0.0
-2.970000e+04 7.390292e+02 0.0
-2.960000e+04 7.392224e+02 0.0
-2.950000e+04 7.394247e+02 0.0
-2.920000e+04 7.400812e+02 0.0
-2.910000e+04 7.403149e+02 0.0
-2.900000e+04 7.405551e+02 0.0
-2.890000e+04 7.408015e+02 0.0
-2.880000e+04 7.410534e+02 0.0
[...]
POINT_DATA 1001
VECTORS displacement double
4.264832e+00 -4.539687e-04 0.0
4.269056e+00 -4.541155e-04 0.0
4.209977e+00 -4.186263e-04 0.0
4.214194e+00 -4.208933e-04 0.0
4.155128e+00 -3.921494e-04 0.0
4.159351e+00 -3.941071e-04 0.0
4.100142e+00 -3.731862e-04 0.0
4.104375e+00 -3.738694e-04 0.0
4.045121e+00 -3.684050e-04 0.0
4.049351e+00 -3.687004e-04 0.0
3.990171e+00 -3.645647e-04 0.0
3.994394e+00 -3.648597e-04 0.0
3.935315e+00 -3.604707e-04 0.0
3.939532e+00 -3.608450e-04 0.0
3.880506e+00 -3.529652e-04 0.0
3.884723e+00 -3.536422e-04 0.0
3.825651e+00 -3.440563e-04 0.0
3.829874e+00 -3.447424e-04 0.0
3.770666e+00 -3.351261e-04 0.0
3.774902e+00 -3.358194e-04 0.0
3.715476e+00 -3.245229e-04 0.0
3.719730e+00 -3.255264e-04 0.0
3.655724e+00 -3.094917e-04 0.0
3.660004e+00 -3.105754e-04 0.0
3.599945e+00 -2.954620e-04 0.0
3.604244e+00 -2.965382e-04 0.0
3.543972e+00 -2.827469e-04 0.0
3.548281e+00 -2.834591e-04 0.0
3.483707e+00 -2.823606e-04 0.0
3.488005e+00 -2.821334e-04 0.0
3.427958e+00 -2.855250e-04 0.0
3.432238e+00 -2.852742e-04 0.0
3.372406e+00 -2.885857e-04 0.0
3.376675e+00 -2.884245e-04 0.0
3.312582e+00 -2.786489e-04 0.0
3.316864e+00 -2.802205e-04 0.0
3.252343e+00 -2.548956e-04 0.0
3.256666e+00 -2.565958e-04 0.0
3.195867e+00 -2.330848e-04 0.0
3.200229e+00 -2.347389e-04 0.0
3.134563e+00 -2.161447e-04 0.0
3.138951e+00 -2.164234e-04 0.0
3.073176e+00 -2.196399e-04 0.0
3.077554e+00 -2.192718e-04 0.0
3.016407e+00 -2.245472e-04 0.0
3.020763e+00 -2.241594e-04 0.0
2.955575e+00 -2.287656e-04 0.0
2.959913e+00 -2.287566e-04 0.0
2.894834e+00 -2.171693e-04 0.0
2.899178e+00 -2.183243e-04 0.0
2.833838e+00 -2.009087e-04 0.0
2.838207e+00 -2.020630e-04 0.0
2.772413e+00 -1.850110e-04 0.0
2.776816e+00 -1.861071e-04 0.0
2.706117e+00 -1.724178e-04 0.0
2.710550e+00 -1.730841e-04 0.0
2.643930e+00 -1.632838e-04 0.0
2.648379e+00 -1.639332e-04 0.0
2.581618e+00 -1.542414e-04 0.0
2.586069e+00 -1.548762e-04 0.0
2.519382e+00 -1.477179e-04 0.0
2.523820e+00 -1.479869e-04 0.0
2.453039e+00 -1.443386e-04 0.0
2.457447e+00 -1.445514e-04 0.0
2.391583e+00 -1.414878e-04 0.0
2.395956e+00 -1.416829e-04 0.0
2.326281e+00 -1.388038e-04 0.0
2.330617e+00 -1.389646e-04 0.0
2.261474e+00 -1.365412e-04 0.0
2.265782e+00 -1.366867e-04 0.0
2.196979e+00 -1.343737e-04 0.0
2.201274e+00 -1.345294e-04 0.0
2.136799e+00 -1.268761e-04 0.0
2.141105e+00 -1.281197e-04 0.0
2.071929e+00 -1.035357e-04 0.0
2.076272e+00 -1.051360e-04 0.0
2.002085e+00 -7.832322e-05 0.0
2.006467e+00 -7.987494e-05 0.0
1.936261e+00 -6.429989e-05 0.0
1.940647e+00 -6.404989e-05 0.0
1.870798e+00 -7.485427e-05 0.0
1.875139e+00 -7.404843e-05 0.0
1.801882e+00 -8.835921e-05 0.0
1.806160e+00 -8.749530e-05 0.0
1.738075e+00 -9.255154e-05 0.0
1.742313e+00 -9.330534e-05 0.0
1.670301e+00 -7.483980e-05 0.0
1.674539e+00 -7.600784e-05 0.0
1.602358e+00 -5.634910e-05 0.0
1.606613e+00 -5.747748e-05 0.0
1.534129e+00 -4.526448e-05 0.0
1.538399e+00 -4.543087e-05 0.0
1.465802e+00 -4.394949e-05 0.0
1.470072e+00 -4.401602e-05 0.0
1.397505e+00 -4.293881e-05 0.0
1.401772e+00 -4.301347e-05 0.0
1.324949e+00 -3.822038e-05 0.0
1.329220e+00 -3.864338e-05 0.0
1.256539e+00 -3.144969e-05 0.0
1.260820e+00 -3.186674e-05 0.0
1.183612e+00 -2.459869e-05 0.0
1.187910e+00 -2.497157e-05 0.0
1.110376e+00 -1.951915e-05 0.0
1.114693e+00 -1.978980e-05 0.0
1.036792e+00 -1.506488e-05 0.0
1.041131e+00 -1.531945e-05 0.0
9.584355e-01 -8.653678e-06 0.0
9.628023e-01 -9.241321e-06 0.0
8.839396e-01 2.224486e-06 0.0
8.883344e-01 1.587541e-06 0.0
8.046548e-01 1.334750e-05 0.0
8.090647e-01 1.278472e-05 0.0
7.210057e-01 1.377439e-05 0.0
7.253949e-01 1.405525e-05 0.0
6.424156e-01 8.326622e-06 0.0
6.467591e-01 8.648081e-06 0.0
5.604050e-01 4.417133e-06 0.0
5.646988e-01 4.323370e-06 0.0
5.261285e-01 5.697940e-06 0.0
5.304063e-01 5.517301e-06 0.0
5.218525e-01 5.879434e-06 0.0
5.175783e-01 6.061120e-06 0.0
5.133058e-01 6.242541e-06 0.0
5.090351e-01 6.423396e-06 0.0
5.004985e-01 6.782719e-06 0.0
4.962325e-01 6.961012e-06 0.0
4.919682e-01 7.138345e-06 0.0
4.877053e-01 7.314713e-06 0.0
4.834439e-01 7.490124e-06 0.0
4.791840e-01 7.664591e-06 0.0
4.664123e-01 8.182493e-06 0.0
4.706682e-01 8.010761e-06 0.0
4.621578e-01 8.353337e-06 0.0
4.579045e-01 8.523296e-06 0.0
4.536524e-01 8.692368e-06 0.0
4.494015e-01 8.860538e-06 0.0
4.409031e-01 9.194057e-06 0.0
4.366556e-01 9.359296e-06 0.0
4.324092e-01 9.523406e-06 0.0
4.281637e-01 9.686255e-06 0.0
4.239193e-01 9.847660e-06 0.0
4.196759e-01 1.000738e-05 0.0
4.154333e-01 1.016508e-05 0.0
4.027111e-01 1.062144e-05 0.0
4.069510e-01 1.047270e-05 0.0
3.984721e-01 1.076579e-05 0.0
3.942338e-01 1.090483e-05 0.0
3.899963e-01 1.103754e-05 0.0
3.857595e-01 1.116290e-05 0.0
3.815235e-01 1.128021e-05 0.0
3.772881e-01 1.138999e-05 0.0
3.688194e-01 1.159092e-05 0.0
3.645859e-01 1.168404e-05 0.0
3.603531e-01 1.177337e-05 0.0
3.561208e-01 1.185958e-05 0.0
3.518890e-01 1.194322e-05 0.0
3.476578e-01 1.202470e-05 0.0
3.434270e-01 1.210436e-05 0.0
3.391966e-01 1.218246e-05 0.0
3.349667e-01 1.225917e-05 0.0
3.265080e-01 1.240896e-05 0.0
3.222792e-01 1.248220e-05 0.0
3.180507e-01 1.255440e-05 0.0
3.138224e-01 1.262557e-05 0.0
3.095944e-01 1.269575e-05 0.0
3.053666e-01 1.276491e-05 0.0
3.011390e-01 1.283307e-05 0.0
2.969115e-01 1.290021e-05 0.0
2.926842e-01 1.296630e-05 0.0
2.842299e-01 1.309530e-05 0.0
2.800027e-01 1.315817e-05 0.0
2.757756e-01 1.321993e-05 0.0
2.715485e-01 1.328059e-05 0.0
2.673213e-01 1.334017e-05 0.0
2.630941e-01 1.339872e-05 0.0
2.588667e-01 1.345634e-05 0.0
2.546392e-01 1.351319e-05 0.0
2.504115e-01 1.356955e-05 0.0
2.461837e-01 1.362581e-05 0.0
2.419556e-01 1.368257e-05 0.0
2.377272e-01 1.374065e-05 0.0
2.250402e-01 1.393652e-05 0.0
2.292695e-01 1.386580e-05 0.0
2.208104e-01 1.401606e-05 0.0
2.165803e-01 1.410792e-05 0.0
2.123497e-01 1.421642e-05 0.0
2.081186e-01 1.434693e-05 0.0
2.038870e-01 1.450580e-05 0.0
1.996548e-01 1.470027e-05 0.0
1.954220e-01 1.493803e-05 0.0
1.911885e-01 1.522590e-05 0.0
1.869544e-01 1.556429e-05 0.0
1.827194e-01 1.594649e-05 0.0
1.784836e-01 1.636478e-05 0.0
1.742470e-01 1.681177e-05 0.0
1.700095e-01 1.728097e-05 0.0
1.572916e-01 1.877210e-05 0.0
1.615318e-01 1.826514e-05 0.0
1.530505e-01 1.928504e-05 0.0
1.488084e-01 1.980188e-05 0.0
1.445654e-01 2.032110e-05 0.0
1.403214e-01 2.084160e-05 0.0
1.360766e-01 2.136266e-05 0.0
1.318308e-01 2.188385e-05 0.0
1.275841e-01 2.240494e-05 0.0
1.233366e-01 2.292587e-05 0.0
1.190881e-01 2.344667e-05 0.0
1.148388e-01 2.396745e-05 0.0
1.105887e-01 2.448828e-05 0.0
1.063378e-01 2.500915e-05 0.0
1.020861e-01 2.552986e-05 0.0
9.783371e-02 2.604986e-05 0.0
9.358060e-02 2.656809e-05 0.0
8.932682e-02 2.708267e-05 0.0
8.507242e-02 2.759062e-05 0.0
8.081744e-02 2.808738e-05 0.0
7.656193e-02 2.856624e-05 0.0
7.230594e-02 2.901761e-05 0.0
6.804952e-02 2.942817e-05 0.0
6.379271e-02 2.977975e-05 0.0
5.953560e-02 3.004818e-05 0.0
5.527823e-02 3.020184e-05 0.0
5.102069e-02 3.020021e-05 0.0
4.676307e-02 2.999247e-05 0.0
4.250547e-02 2.951618e-05 0.0
3.824801e-02 2.869651e-05 0.0
3.399088e-02 2.744638e-05 0.0
2.973427e-02 2.566838e-05 0.0
2.547848e-02 2.326070e-05 0.0
2.122390e-02 2.013651e-05 0.0
1.697110e-02 1.622746e-05 0.0
1.272086e-02 1.142347e-05 0.0
8.474337e-03 6.090677e-06 0.0
0.000000e+00 0.000000e+00 0.0
4.233328e-03 3.822488e-07 0.0
1.657711e-01 1.776691e-05 0.0
2.334985e-01 1.380120e-05 0.0
2.884570e-01 1.303134e-05 0.0
3.307372e-01 1.233464e-05 0.0
3.730534e-01 1.149322e-05 0.0
4.111917e-01 1.032037e-05 0.0
4.451517e-01 9.027782e-06 0.0
4.749254e-01 7.838132e-06 0.0
5.047660e-01 6.603493e-06 0.0
5.346859e-01 5.338463e-06 0.0
5.389674e-01 5.162739e-06 0.0
5.432509e-01 4.991915e-06 0.0
5.475364e-01 4.828372e-06 0.0
5.518238e-01 4.675225e-06 0.0
5.561134e-01 4.536471e-06 0.0
5.689948e-01 4.262508e-06 0.0
5.732930e-01 4.242856e-06 0.0
5.775936e-01 4.273061e-06 0.0
5.818965e-01 4.360190e-06 0.0
5.862020e-01 4.502561e-06 0.0
5.905099e-01 4.691962e-06 0.0
5.948205e-01 4.919516e-06 0.0
5.991336e-01 5.176963e-06 0.0
6.034495e-01 5.457129e-06 0.0
6.077680e-01 5.754036e-06 0.0
6.120893e-01 6.062840e-06 0.0
6.164133e-01 6.379708e-06 0.0
6.207400e-01 6.701668e-06 0.0
6.250695e-01 7.026462e-06 0.0
6.294019e-01 7.352410e-06 0.0
6.337370e-01 7.678288e-06 0.0
6.380749e-01 8.003225e-06 0.0
6.511054e-01 8.967353e-06 0.0
6.554545e-01 9.284296e-06 0.0
6.598063e-01 9.598846e-06 0.0
6.641609e-01 9.910993e-06 0.0
6.685182e-01 1.022076e-05 0.0
6.728782e-01 1.052821e-05 0.0
6.772409e-01 1.083341e-05 0.0
6.816062e-01 1.113644e-05 0.0
6.859741e-01 1.143739e-05 0.0
6.903446e-01 1.173635e-05 0.0
6.947176e-01 1.203339e-05 0.0
6.990931e-01 1.232858e-05 0.0
7.034710e-01 1.262192e-05 0.0
7.078513e-01 1.291339e-05 0.0
7.122339e-01 1.320284e-05 0.0
7.166187e-01 1.348999e-05 0.0
7.297860e-01 1.433143e-05 0.0
7.341792e-01 1.460125e-05 0.0
7.385742e-01 1.486234e-05 0.0
7.429711e-01 1.511146e-05 0.0
7.473696e-01 1.534421e-05 0.0
7.517698e-01 1.555486e-05 0.0
7.561715e-01 1.573599e-05 0.0
7.605747e-01 1.587832e-05 0.0
7.649791e-01 1.597053e-05 0.0
7.693847e-01 1.599930e-05 0.0
7.737914e-01 1.594999e-05 0.0
7.781990e-01 1.580847e-05 0.0
7.826073e-01 1.556900e-05 0.0
7.870162e-01 1.524240e-05 0.0
7.914256e-01 1.484344e-05 0.0
7.958352e-01 1.438652e-05 0.0
8.002450e-01 1.388432e-05 0.0
8.134743e-01 1.220277e-05 0.0
8.178838e-01 1.160694e-05 0.0
8.222929e-01 1.100120e-05 0.0
8.267015e-01 1.038847e-05 0.0
8.311097e-01 9.770868e-06 0.0
8.355172e-01 9.149878e-06 0.0
8.399241e-01 8.526504e-06 0.0
8.443302e-01 7.901398e-06 0.0
8.487355e-01 7.274960e-06 0.0
8.531399e-01 6.647411e-06 0.0
8.575433e-01 6.018848e-06 0.0
8.619456e-01 5.389288e-06 0.0
8.663469e-01 4.758695e-06 0.0
8.707470e-01 4.127004e-06 0.0
8.751458e-01 3.494131e-06 0.0
8.795434e-01 2.859989e-06 0.0
8.927278e-01 9.490803e-07 0.0
8.971198e-01 3.090456e-07 0.0
9.015102e-01 -3.325983e-07 0.0
9.058991e-01 -9.758542e-07 0.0
9.102864e-01 -1.620678e-06 0.0
9.146721e-01 -2.266961e-06 0.0
9.190561e-01 -2.914499e-06 0.0
9.234385e-01 -3.562965e-06 0.0
9.278192e-01 -4.211854e-06 0.0
9.321982e-01 -4.860433e-06 0.0
9.365754e-01 -5.507661e-06 0.0
9.409509e-01 -6.152108e-06 0.0
9.453247e-01 -6.791848e-06 0.0
9.496967e-01 -7.424346e-06 0.0
9.540670e-01 -8.046330e-06 0.0
9.671673e-01 -9.803221e-06 0.0
9.715306e-01 -1.033254e-05 0.0
9.758922e-01 -1.082219e-05 0.0
9.802521e-01 -1.126659e-05 0.0
9.846104e-01 -1.166766e-05 0.0
9.889671e-01 -1.203199e-05 0.0
9.933223e-01 -1.236654e-05 0.0
9.976759e-01 -1.267774e-05 0.0
1.002028e+00 -1.297112e-05 0.0
1.006379e+00 -1.325125e-05 0.0
1.010728e+00 -1.352178e-05 0.0
1.015075e+00 -1.378562e-05 0.0
1.019421e+00 -1.404496e-05 0.0
1.023766e+00 -1.430149e-05 0.0
1.028109e+00 -1.455644e-05 0.0
1.032451e+00 -1.481069e-05 0.0
1.045468e+00 -1.557467e-05 0.0
1.049805e+00 -1.583073e-05 0.0
1.054140e+00 -1.608774e-05 0.0
1.058473e+00 -1.634576e-05 0.0
1.062806e+00 -1.660480e-05 0.0
1.067137e+00 -1.686489e-05 0.0
1.071466e+00 -1.712599e-05 0.0
1.075795e+00 -1.738810e-05 0.0
1.080122e+00 -1.765120e-05 0.0
1.084447e+00 -1.791525e-05 0.0
1.088772e+00 -1.818026e-05 0.0
1.093095e+00 -1.844619e-05 0.0
1.097417e+00 -1.871304e-05 0.0
1.101738e+00 -1.898081e-05 0.0
1.106058e+00 -1.924951e-05 0.0
1.119009e+00 -2.006152e-05 0.0
1.123324e+00 -2.033443e-05 0.0
1.127638e+00 -2.060871e-05 0.0
1.131950e+00 -2.088459e-05 0.0
1.136262e+00 -2.116242e-05 0.0
1.140572e+00 -2.144264e-05 0.0
1.144881e+00 -2.172586e-05 0.0
1.149189e+00 -2.201284e-05 0.0
1.153496e+00 -2.230458e-05 0.0
1.157801e+00 -2.260227e-05 0.0
1.162106e+00 -2.290739e-05 0.0
1.166409e+00 -2.322163e-05 0.0
1.170712e+00 -2.354683e-05 0.0
1.175013e+00 -2.388470e-05 0.0
1.179313e+00 -2.423580e-05 0.0
1.192207e+00 -2.535266e-05 0.0
1.196503e+00 -2.574041e-05 0.0
1.200798e+00 -2.613348e-05 0.0
1.205092e+00 -2.653079e-05 0.0
1.209384e+00 -2.693148e-05 0.0
1.213676e+00 -2.733487e-05 0.0
1.217967e+00 -2.774046e-05 0.0
1.222256e+00 -2.814784e-05 0.0
1.226545e+00 -2.855672e-05 0.0
1.230833e+00 -2.896691e-05 0.0
1.235119e+00 -2.937825e-05 0.0
1.239405e+00 -2.979064e-05 0.0
1.243690e+00 -3.020401e-05 0.0
1.247974e+00 -3.061832e-05 0.0
1.252257e+00 -3.103356e-05 0.0
1.265101e+00 -3.228469e-05 0.0
1.269380e+00 -3.270355e-05 0.0
1.273659e+00 -3.312334e-05 0.0
1.277937e+00 -3.354407e-05 0.0
1.282214e+00 -3.396574e-05 0.0
1.286491e+00 -3.438836e-05 0.0
1.290767e+00 -3.481192e-05 0.0
1.295042e+00 -3.523639e-05 0.0
1.299316e+00 -3.566171e-05 0.0
1.303590e+00 -3.608780e-05 0.0
1.307863e+00 -3.651448e-05 0.0
1.312135e+00 -3.694153e-05 0.0
1.316407e+00 -3.736858e-05 0.0
1.320679e+00 -3.779511e-05 0.0
1.333490e+00 -3.906275e-05 0.0
1.337759e+00 -3.947668e-05 0.0
1.342028e+00 -3.988283e-05 0.0
1.346297e+00 -4.027820e-05 0.0
1.350565e+00 -4.065907e-05 0.0
1.354833e+00 -4.102091e-05 0.0
1.359101e+00 -4.135836e-05 0.0
1.363368e+00 -4.166547e-05 0.0
1.367636e+00 -4.193615e-05 0.0
1.371903e+00 -4.216599e-05 0.0
1.376170e+00 -4.235739e-05 0.0
1.380437e+00 -4.251620e-05 0.0
1.384704e+00 -4.264852e-05 0.0
1.388971e+00 -4.275998e-05 0.0
1.393238e+00 -4.285540e-05 0.0
1.406040e+00 -4.308194e-05 0.0
1.410307e+00 -4.314623e-05 0.0
1.414575e+00 -4.320784e-05 0.0
1.418843e+00 -4.326792e-05 0.0
1.423111e+00 -4.332728e-05 0.0
1.427379e+00 -4.338652e-05 0.0
1.431648e+00 -4.344604e-05 0.0
1.435916e+00 -4.350612e-05 0.0
1.440185e+00 -4.356692e-05 0.0
1.444454e+00 -4.362854e-05 0.0
1.448723e+00 -4.369104e-05 0.0
1.452993e+00 -4.375441e-05 0.0
1.457262e+00 -4.381864e-05 0.0
1.461532e+00 -4.388368e-05 0.0
1.474342e+00 -4.408320e-05 0.0
1.478613e+00 -4.415099e-05 0.0
1.482883e+00 -4.421938e-05 0.0
1.487154e+00 -4.428836e-05 0.0
1.491425e+00 -4.435802e-05 0.0
1.495695e+00 -4.442852e-05 0.0
1.499966e+00 -4.450017e-05 0.0
1.504237e+00 -4.457347e-05 0.0
1.508507e+00 -4.464919e-05 0.0
1.512778e+00 -4.472850e-05 0.0
1.517049e+00 -4.481305e-05 0.0
1.521319e+00 -4.490517e-05 0.0
1.525589e+00 -4.500805e-05 0.0
1.529859e+00 -4.512595e-05 0.0
1.542668e+00 -4.563423e-05 0.0
1.546937e+00 -4.588578e-05 0.0
1.551205e+00 -4.619898e-05 0.0
1.555473e+00 -4.658930e-05 0.0
1.559740e+00 -4.707332e-05 0.0
1.564006e+00 -4.766631e-05 0.0
1.568272e+00 -4.837122e-05 0.0
1.572536e+00 -4.917456e-05 0.0
1.576800e+00 -5.005991e-05 0.0
1.581063e+00 -5.101147e-05 0.0
1.585324e+00 -5.201530e-05 0.0
1.589584e+00 -5.305964e-05 0.0
1.593843e+00 -5.413488e-05 0.0
1.598101e+00 -5.523337e-05 0.0
1.610867e+00 -5.861505e-05 0.0
1.615120e+00 -5.975926e-05 0.0
1.619372e+00 -6.090826e-05 0.0
1.623622e+00 -6.206072e-05 0.0
1.627871e+00 -6.321575e-05 0.0
1.632119e+00 -6.437272e-05 0.0
1.636366e+00 -6.553125e-05 0.0
1.640612e+00 -6.669107e-05 0.0
1.644856e+00 -6.785205e-05 0.0
1.649099e+00 -6.901411e-05 0.0
1.653342e+00 -7.017721e-05 0.0
1.657583e+00 -7.134134e-05 0.0
1.661823e+00 -7.250649e-05 0.0
1.666063e+00 -7.367266e-05 0.0
1.678776e+00 -7.717661e-05 0.0
1.683012e+00 -7.834586e-05 0.0
1.687248e+00 -7.951515e-05 0.0
1.691484e+00 -8.068379e-05 0.0
1.695719e+00 -8.185078e-05 0.0
1.699954e+00 -8.301462e-05 0.0
1.704189e+00 -8.417315e-05 0.0
1.708423e+00 -8.532337e-05 0.0
1.712658e+00 -8.646110e-05 0.0
1.716893e+00 -8.758072e-05 0.0
1.721128e+00 -8.867470e-05 0.0
1.725364e+00 -8.973319e-05 0.0
1.729600e+00 -9.074350e-05 0.0
1.733837e+00 -9.168957e-05 0.0
1.746553e+00 -9.392288e-05 0.0
1.750795e+00 -9.437302e-05 0.0
1.755038e+00 -9.462464e-05 0.0
1.759282e+00 -9.465745e-05 0.0
1.763529e+00 -9.448749e-05 0.0
1.767779e+00 -9.414609e-05 0.0
1.772031e+00 -9.366536e-05 0.0
1.776286e+00 -9.307464e-05 0.0
1.780544e+00 -9.239923e-05 0.0
1.784805e+00 -9.166018e-05 0.0
1.789069e+00 -9.087455e-05 0.0
1.793337e+00 -9.005590e-05 0.0
1.797608e+00 -8.921476e-05 0.0
1.810442e+00 -8.662751e-05 0.0
1.814728e+00 -8.575905e-05 0.0
1.819017e+00 -8.489220e-05 0.0
1.823310e+00 -8.402852e-05 0.0
1.827607e+00 -8.316904e-05 0.0
1.831908e+00 -8.231440e-05 0.0
1.836214e+00 -8.146496e-05 0.0
1.840523e+00 -8.062087e-05 0.0
1.844836e+00 -7.978215e-05 0.0
1.849153e+00 -7.894872e-05 0.0
1.853474e+00 -7.812043e-05 0.0
1.857799e+00 -7.729706e-05 0.0
1.862128e+00 -7.647840e-05 0.0
1.866462e+00 -7.566421e-05 0.0
1.879484e+00 -7.324662e-05 0.0
1.883832e+00 -7.244897e-05 0.0
1.888184e+00 -7.165587e-05 0.0
1.892539e+00 -7.086811e-05 0.0
1.896898e+00 -7.008706e-05 0.0
1.901260e+00 -6.931491e-05 0.0
1.905626e+00 -6.855496e-05 0.0
1.909994e+00 -6.781201e-05 0.0
1.914365e+00 -6.709279e-05 0.0
1.918740e+00 -6.640655e-05 0.0
1.923117e+00 -6.576565e-05 0.0
1.927496e+00 -6.518626e-05 0.0
1.931877e+00 -6.468908e-05 0.0
1.945034e+00 -6.397515e-05 0.0
1.949423e+00 -6.411438e-05 0.0
1.953812e+00 -6.450229e-05 0.0
1.958203e+00 -6.514089e-05 0.0
1.962593e+00 -6.599626e-05 0.0
1.966984e+00 -6.702939e-05 0.0
1.971374e+00 -6.820354e-05 0.0
1.975764e+00 -6.948681e-05 0.0
1.980154e+00 -7.085273e-05 0.0
1.984542e+00 -7.228000e-05 0.0
1.988930e+00 -7.375192e-05 0.0
1.993316e+00 -7.525572e-05 0.0
1.997701e+00 -7.678182e-05 0.0
2.010847e+00 -8.143354e-05 0.0
2.015225e+00 -8.299673e-05 0.0
2.019601e+00 -8.456307e-05 0.0
2.023976e+00 -8.613174e-05 0.0
2.028347e+00 -8.770234e-05 0.0
2.032717e+00 -8.927473e-05 0.0
2.037084e+00 -9.084897e-05 0.0
2.041449e+00 -9.242524e-05 0.0
2.045811e+00 -9.400377e-05 0.0
2.050171e+00 -9.558481e-05 0.0
2.054528e+00 -9.716862e-05 0.0
2.058882e+00 -9.875545e-05 0.0
2.063234e+00 -1.003455e-04 0.0
2.067583e+00 -1.019389e-04 0.0
2.080613e+00 -1.067396e-04 0.0
2.084950e+00 -1.083461e-04 0.0
2.089285e+00 -1.099549e-04 0.0
2.093618e+00 -1.115650e-04 0.0
2.097947e+00 -1.131750e-04 0.0
2.102274e+00 -1.147827e-04 0.0
2.106598e+00 -1.163850e-04 0.0
2.110920e+00 -1.179779e-04 0.0
2.115239e+00 -1.195557e-04 0.0
2.119555e+00 -1.211110e-04 0.0
2.123870e+00 -1.226344e-04 0.0
2.128182e+00 -1.241136e-04 0.0
2.132491e+00 -1.255336e-04 0.0
2.145409e+00 -1.292409e-04 0.0
2.149711e+00 -1.302161e-04 0.0
2.154012e+00 -1.310313e-04 0.0
2.158311e+00 -1.316999e-04 0.0
2.162610e+00 -1.322449e-04 0.0
2.166908e+00 -1.326893e-04 0.0
2.171205e+00 -1.330542e-04 0.0
2.175501e+00 -1.333576e-04 0.0
2.179797e+00 -1.336141e-04 0.0
2.184093e+00 -1.338356e-04 0.0
2.188388e+00 -1.340315e-04 0.0
2.192683e+00 -1.342091e-04 0.0
2.205569e+00 -1.346792e-04 0.0
2.209865e+00 -1.348252e-04 0.0
2.214162e+00 -1.349690e-04 0.0
2.218458e+00 -1.351115e-04 0.0
2.222756e+00 -1.352533e-04 0.0
2.227054e+00 -1.353951e-04 0.0
2.231353e+00 -1.355369e-04 0.0
2.235652e+00 -1.356791e-04 0.0
2.239953e+00 -1.358216e-04 0.0
2.244255e+00 -1.359646e-04 0.0
2.248558e+00 -1.361080e-04 0.0
2.252862e+00 -1.362519e-04 0.0
2.257167e+00 -1.363963e-04 0.0
2.270091e+00 -1.368327e-04 0.0
2.274403e+00 -1.369792e-04 0.0
2.278715e+00 -1.371264e-04 0.0
2.283030e+00 -1.372742e-04 0.0
2.287346e+00 -1.374227e-04 0.0
2.291664e+00 -1.375720e-04 0.0
2.295984e+00 -1.377221e-04 0.0
2.300306e+00 -1.378731e-04 0.0
2.304630e+00 -1.380250e-04 0.0
2.308956e+00 -1.381781e-04 0.0
2.313284e+00 -1.383323e-04 0.0
2.317614e+00 -1.384879e-04 0.0
2.321946e+00 -1.386449e-04 0.0
2.334956e+00 -1.391276e-04 0.0
2.339298e+00 -1.392933e-04 0.0
2.343641e+00 -1.394618e-04 0.0
2.347987e+00 -1.396336e-04 0.0
2.352336e+00 -1.398086e-04 0.0
2.356687e+00 -1.399866e-04 0.0
2.361040e+00 -1.401673e-04 0.0
2.365396e+00 -1.403503e-04 0.0
2.369754e+00 -1.405355e-04 0.0
2.374115e+00 -1.407226e-04 0.0
2.378478e+00 -1.409115e-04 0.0
2.382844e+00 -1.411021e-04 0.0
2.387212e+00 -1.412942e-04 0.0
2.400332e+00 -1.418794e-04 0.0
2.404711e+00 -1.420772e-04 0.0
2.409092e+00 -1.422764e-04 0.0
2.413475e+00 -1.424769e-04 0.0
2.417861e+00 -1.426787e-04 0.0
2.422250e+00 -1.428818e-04 0.0
2.426641e+00 -1.430863e-04 0.0
2.431035e+00 -1.432919e-04 0.0
2.435431e+00 -1.434989e-04 0.0
2.439829e+00 -1.437070e-04 0.0
2.444230e+00 -1.439164e-04 0.0
2.448633e+00 -1.441269e-04 0.0
2.461857e+00 -1.447653e-04 0.0
2.466270e+00 -1.449802e-04 0.0
2.470685e+00 -1.451962e-04 0.0
2.475102e+00 -1.454133e-04 0.0
2.479521e+00 -1.456315e-04 0.0
2.483942e+00 -1.458509e-04 0.0
2.488365e+00 -1.460718e-04 0.0
2.492791e+00 -1.462945e-04 0.0
2.497218e+00 -1.465195e-04 0.0
2.501647e+00 -1.467475e-04 0.0
2.506078e+00 -1.469796e-04 0.0
2.510511e+00 -1.472173e-04 0.0
2.514946e+00 -1.474625e-04 0.0
2.528259e+00 -1.482737e-04 0.0
2.532700e+00 -1.485835e-04 0.0
2.537142e+00 -1.489227e-04 0.0