# vtk DataFile Version 2.0
Simplicial Mesh Example
ASCII
DATASET UNSTRUCTURED_GRID
POINTS 1001 double
4.900000e+04 7.668177e+02 0.0
4.910000e+04 7.661642e+02 0.0
4.770000e+04 7.722195e+02 0.0
4.780000e+04 7.719842e+02 0.0
4.640000e+04 7.732670e+02 0.0
4.650000e+04 7.732953e+02 0.0
4.510000e+04 7.719654e+02 0.0
4.520000e+04 7.721057e+02 0.0
4.380000e+04 7.698512e+02 0.0
4.390000e+04 7.700261e+02 0.0
4.250000e+04 7.676055e+02 0.0
4.260000e+04 7.677695e+02 0.0
4.120000e+04 7.658180e+02 0.0
4.130000e+04 7.659258e+02 0.0
3.990000e+04 7.649675e+02 0.0
4.000000e+04 7.650036e+02 0.0
3.860000e+04 7.646433e+02 0.0
3.870000e+04 7.646685e+02 0.0
3.730000e+04 7.640094e+02 0.0
3.740000e+04 7.640883e+02 0.0
3.600000e+04 7.622352e+02 0.0
3.610000e+04 7.624270e+02 0.0
3.460000e+04 7.590025e+02 0.0
3.470000e+04 7.592476e+02 0.0
3.330000e+04 7.561496e+02 0.0
3.340000e+04 7.563302e+02 0.0
3.200000e+04 7.549011e+02 0.0
3.210000e+04 7.549078e+02 0.0
3.060000e+04 7.564708e+02 0.0
3.070000e+04 7.562840e+02 0.0
2.930000e+04 7.590785e+02 0.0
2.940000e+04 7.588936e+02 0.0
2.800000e+04 7.604107e+02 0.0
2.810000e+04 7.604064e+02 0.0
2.660000e+04 7.578728e+02 0.0
2.670000e+04 7.582168e+02 0.0
2.520000e+04 7.515456e+02 0.0
2.530000e+04 7.520510e+02 0.0
2.390000e+04 7.453107e+02 0.0
2.400000e+04 7.457339e+02 0.0
2.250000e+04 7.416175e+02 0.0
2.260000e+04 7.417065e+02 0.0
2.110000e+04 7.427965e+02 0.0
2.120000e+04 7.425988e+02 0.0
1.980000e+04 7.459673e+02 0.0
1.990000e+04 7.457152e+02 0.0
1.840000e+04 7.484996e+02 0.0
1.850000e+04 7.484170e+02 0.0
1.700000e+04 7.474093e+02 0.0
1.710000e+04 7.476103e+02 0.0
1.560000e+04 7.432912e+02 0.0
1.570000e+04 7.436446e+02 0.0
1.420000e+04 7.380774e+02 0.0
1.430000e+04 7.384449e+02 0.0
1.270000e+04 7.333947e+02 0.0
1.280000e+04 7.336467e+02 0.0
1.130000e+04 7.309130e+02 0.0
1.140000e+04 7.310218e+02 0.0
9.900000e+03 7.306203e+02 0.0
1.000000e+04 7.305613e+02 0.0
8.500000e+03 7.328400e+02 0.0
8.600000e+03 7.325966e+02 0.0
7.000000e+03 7.376551e+02 0.0
7.100000e+03 7.372801e+02 0.0
5.600000e+03 7.433109e+02 0.0
5.700000e+03 7.428939e+02 0.0
4.100000e+03 7.493446e+02 0.0
4.200000e+03 7.489694e+02 0.0
2.600000e+03 7.540089e+02 0.0
2.700000e+03 7.537690e+02 0.0
1.100000e+03 7.558841e+02 0.0
1.200000e+03 7.558744e+02 0.0
-3.000000e+02 7.538696e+02 0.0
-2.000000e+02 7.541547e+02 0.0
-1.800000e+03 7.480626e+02 0.0
-1.700000e+03 7.484905e+02 0.0
-3.400000e+03 7.423724e+02 0.0
-3.300000e+03 7.426089e+02 0.0
-4.900000e+03 7.424278e+02 0.0
-4.800000e+03 7.421765e+02 0.0
-6.400000e+03 7.494207e+02 0.0
-6.300000e+03 7.488208e+02 0.0
-8.000000e+03 7.594350e+02 0.0
-7.900000e+03 7.588482e+02 0.0
-9.500000e+03 7.657132e+02 0.0
-9.400000e+03 7.654837e+02 0.0
-1.110000e+04 7.663039e+02 0.0
-1.100000e+04 7.664005e+02 0.0
-1.270000e+04 7.636623e+02 0.0
-1.260000e+04 7.638514e+02 0.0
-1.430000e+04 7.614616e+02 0.0
-1.420000e+04 7.615339e+02 0.0
-1.590000e+04 7.611575e+02 0.0
-1.580000e+04 7.611440e+02 0.0
-1.750000e+04 7.614344e+02 0.0
-1.740000e+04 7.614282e+02 0.0
-1.920000e+04 7.607814e+02 0.0
-1.910000e+04 7.608629e+02 0.0
-2.080000e+04 7.588794e+02 0.0
-2.070000e+04 7.590269e+02 0.0
-2.250000e+04 7.559722e+02 0.0
-2.240000e+04 7.561593e+02 0.0
-2.420000e+04 7.525989e+02 0.0
-2.410000e+04 7.528084e+02 0.0
-2.590000e+04 7.487692e+02 0.0
-2.580000e+04 7.490099e+02 0.0
-2.770000e+04 7.440501e+02 0.0
-2.760000e+04 7.443301e+02 0.0
-2.940000e+04 7.396356e+02 0.0
-2.930000e+04 7.398546e+02 0.0
-3.120000e+04 7.375620e+02 0.0
-3.110000e+04 7.375588e+02 0.0
-3.310000e+04 7.410514e+02 0.0
-3.300000e+04 7.407222e+02 0.0
-3.490000e+04 7.484994e+02 0.0
-3.480000e+04 7.480412e+02 0.0
-3.680000e+04 7.567781e+02 0.0
-3.670000e+04 7.563934e+02 0.0
-3.760000e+04 7.595972e+02 0.0
-3.750000e+04 7.592695e+02 0.0
-3.770000e+04 7.599182e+02 0.0
-3.780000e+04 7.602323e+02 0.0
-3.790000e+04 7.605397e+02 0.0
-3.800000e+04 7.608405e+02 0.0
-3.820000e+04 7.614222e+02 0.0
-3.830000e+04 7.617032e+02 0.0
-3.840000e+04 7.619778e+02 0.0
-3.850000e+04 7.622461e+02 0.0
-3.860000e+04 7.625080e+02 0.0
-3.870000e+04 7.627636e+02 0.0
-3.900000e+04 7.634936e+02 0.0
-3.890000e+04 7.632564e+02 0.0
-3.910000e+04 7.637248e+02 0.0
-3.920000e+04 7.639500e+02 0.0
-3.930000e+04 7.641693e+02 0.0
-3.940000e+04 7.643828e+02 0.0
-3.960000e+04 7.647923e+02 0.0
-3.970000e+04 7.649886e+02 0.0
-3.980000e+04 7.651792e+02 0.0
-3.990000e+04 7.653643e+02 0.0
-4.000000e+04 7.655438e+02 0.0
-4.010000e+04 7.657180e+02 0.0
-4.020000e+04 7.658867e+02 0.0
-4.050000e+04 7.663612e+02 0.0
-4.040000e+04 7.662083e+02 0.0
-4.060000e+04 7.665090e+02 0.0
-4.070000e+04 7.666518e+02 0.0
-4.080000e+04 7.667894e+02 0.0
-4.090000e+04 7.669222e+02 0.0
-4.100000e+04 7.670499e+02 0.0
-4.110000e+04 7.671728e+02 0.0
-4.130000e+04 7.674037e+02 0.0
-4.140000e+04 7.675116e+02 0.0
-4.150000e+04 7.676146e+02 0.0
-4.160000e+04 7.677125e+02 0.0
-4.170000e+04 7.678053e+02 0.0
-4.180000e+04 7.678931e+02 0.0
-4.190000e+04 7.679758e+02 0.0
-4.200000e+04 7.680533e+02 0.0
-4.210000e+04 7.681257e+02 0.0
-4.230000e+04 7.682551e+02 0.0
-4.240000e+04 7.683119e+02 0.0
-4.250000e+04 7.683635e+02 0.0
-4.260000e+04 7.684099e+02 0.0
-4.270000e+04 7.684510e+02 0.0
-4.280000e+04 7.684869e+02 0.0
-4.290000e+04 7.685174e+02 0.0
-4.300000e+04 7.685425e+02 0.0
-4.310000e+04 7.685623e+02 0.0
-4.330000e+04 7.685858e+02 0.0
-4.340000e+04 7.685894e+02 0.0
-4.350000e+04 7.685876e+02 0.0
-4.360000e+04 7.685803e+02 0.0
-4.370000e+04 7.685675e+02 0.0
-4.380000e+04 7.685492e+02 0.0
-4.390000e+04 7.685254e+02 0.0
-4.400000e+04 7.684960e+02 0.0
-4.410000e+04 7.684611e+02 0.0
-4.420000e+04 7.684205e+02 0.0
-4.430000e+04 7.683744e+02 0.0
-4.440000e+04 7.683226e+02 0.0
-4.470000e+04 7.681332e+02 0.0
-4.460000e+04 7.682020e+02 0.0
-4.480000e+04 7.680586e+02 0.0
-4.490000e+04 7.679783e+02 0.0
-4.500000e+04 7.678923e+02 0.0
-4.510000e+04 7.678004e+02 0.0
-4.520000e+04 7.677028e+02 0.0
-4.530000e+04 7.675993e+02 0.0
-4.540000e+04 7.674899e+02 0.0
-4.550000e+04 7.673747e+02 0.0
-4.560000e+04 7.672539e+02 0.0
-4.570000e+04 7.671281e+02 0.0
-4.580000e+04 7.669977e+02 0.0
-4.590000e+04 7.668635e+02 0.0
-4.600000e+04 7.667260e+02 0.0
-4.630000e+04 7.662992e+02 0.0
-4.620000e+04 7.664433e+02 0.0
-4.640000e+04 7.661542e+02 0.0
-4.650000e+04 7.660087e+02 0.0
-4.660000e+04 7.658634e+02 0.0
-4.670000e+04 7.657188e+02 0.0
-4.680000e+04 7.655755e+02 0.0
-4.690000e+04 7.654341e+02 0.0
-4.700000e+04 7.652951e+02 0.0
-4.710000e+04 7.651592e+02 0.0
-4.720000e+04 7.650268e+02 0.0
-4.730000e+04 7.648987e+02 0.0
-4.740000e+04 7.647753e+02 0.0
-4.750000e+04 7.646572e+02 0.0
-4.760000e+04 7.645450e+02 0.0
-4.770000e+04 7.644394e+02 0.0
-4.780000e+04 7.643408e+02 0.0
-4.790000e+04 7.642498e+02 0.0
-4.800000e+04 7.641671e+02 0.0
-4.810000e+04 7.640932e+02 0.0
-4.820000e+04 7.640286e+02 0.0
-4.830000e+04 7.639740e+02 0.0
-4.840000e+04 7.639299e+02 0.0
-4.850000e+04 7.638969e+02 0.0
-4.860000e+04 7.638756e+02 0.0
-4.870000e+04 7.638665e+02 0.0
-4.880000e+04 7.638703e+02 0.0
-4.890000e+04 7.638875e+02 0.0
-4.900000e+04 7.639187e+02 0.0
-4.910000e+04 7.639645e+02 0.0
-4.920000e+04 7.640253e+02 0.0
-4.930000e+04 7.641020e+02 0.0
-4.940000e+04 7.641949e+02 0.0
-4.950000e+04 7.643046e+02 0.0
-4.960000e+04 7.644318e+02 0.0
-4.970000e+04 7.645771e+02 0.0
-4.980000e+04 7.647409e+02 0.0
-5.000000e+04 7.651267e+02 0.0
-4.990000e+04 7.649240e+02 0.0
-4.610000e+04 7.665857e+02 0.0
-4.450000e+04 7.682652e+02 0.0
-4.320000e+04 7.685768e+02 0.0
-4.220000e+04 7.681930e+02 0.0
-4.120000e+04 7.672907e+02 0.0
-4.030000e+04 7.660501e+02 0.0
-3.950000e+04 7.645904e+02 0.0
-3.880000e+04 7.630131e+02 0.0
-3.810000e+04 7.611346e+02 0.0
-3.740000e+04 7.589348e+02 0.0
-3.730000e+04 7.585931e+02 0.0
-3.720000e+04 7.582444e+02 0.0
-3.710000e+04 7.578886e+02 0.0
-3.700000e+04 7.575257e+02 0.0
-3.690000e+04 7.571555e+02 0.0
-3.660000e+04 7.560013e+02 0.0
-3.650000e+04 7.556018e+02 0.0
-3.640000e+04 7.551947e+02 0.0
-3.630000e+04 7.547802e+02 0.0
-3.620000e+04 7.543584e+02 0.0
-3.610000e+04 7.539301e+02 0.0
-3.600000e+04 7.534958e+02 0.0
-3.590000e+04 7.530562e+02 0.0
-3.580000e+04 7.526118e+02 0.0
-3.570000e+04 7.521632e+02 0.0
-3.560000e+04 7.517112e+02 0.0
-3.550000e+04 7.512562e+02 0.0
-3.540000e+04 7.507989e+02 0.0
-3.530000e+04 7.503400e+02 0.0
-3.520000e+04 7.498799e+02 0.0
-3.510000e+04 7.494194e+02 0.0
-3.500000e+04 7.489590e+02 0.0
-3.470000e+04 7.475849e+02 0.0
-3.460000e+04 7.471312e+02 0.0
-3.450000e+04 7.466807e+02 0.0
-3.440000e+04 7.462340e+02 0.0
-3.430000e+04 7.457917e+02 0.0
-3.420000e+04 7.453545e+02 0.0
-3.410000e+04 7.449229e+02 0.0
-3.400000e+04 7.444975e+02 0.0
-3.390000e+04 7.440790e+02 0.0
-3.380000e+04 7.436680e+02 0.0
-3.370000e+04 7.432651e+02 0.0
-3.360000e+04 7.428708e+02 0.0
-3.350000e+04 7.424859e+02 0.0
-3.340000e+04 7.421109e+02 0.0
-3.330000e+04 7.417464e+02 0.0
-3.320000e+04 7.413930e+02 0.0
-3.290000e+04 7.404059e+02 0.0
-3.280000e+04 7.401032e+02 0.0
-3.270000e+04 7.398147e+02 0.0
-3.260000e+04 7.395410e+02 0.0
-3.250000e+04 7.392827e+02 0.0
-3.240000e+04 7.390405e+02 0.0
-3.230000e+04 7.388148e+02 0.0
-3.220000e+04 7.386065e+02 0.0
-3.210000e+04 7.384160e+02 0.0
-3.200000e+04 7.382439e+02 0.0
-3.190000e+04 7.380909e+02 0.0
-3.180000e+04 7.379577e+02 0.0
-3.170000e+04 7.378444e+02 0.0
-3.160000e+04 7.377507e+02 0.0
-3.150000e+04 7.376762e+02 0.0
-3.140000e+04 7.376202e+02 0.0
-3.130000e+04 7.375823e+02 0.0
-3.100000e+04 7.375722e+02 0.0
-3.090000e+04 7.376018e+02 0.0
-3.080000e+04 7.376469e+02 0.0
-3.070000e+04 7.377071e+02 0.0
-3.060000e+04 7.377819e+02 0.0
-3.050000e+04 7.378707e+02 0.0
-3.040000e+04 7.379732e+02 0.0
-3.030000e+04 7.380888e+02 0.0
-3.020000e+04 7.382170e+02 0.0
-3.010000e+04 7.383572e+02 0.0
-3.000000e+04 7.385091e+02 0.0
-2.990000e+04 7.386720e+02 0.0
-2.980000e+04 7.388456e+02 0.0
-2.970000e+04 7.390292e+02 0.0
-2.960000e+04 7.392224e+02 0.0
-2.950000e+04 7.394247e+02 0.0
-2.920000e+04 7.400812e+02 0.0
-2.910000e+04 7.403149e+02 0.0
-2.900000e+04 7.405551e+02 0.0
-2.890000e+04 7.408015e+02 0.0
-2.880000e+04 7.410534e+02 0.0
[...]
POINT_DATA 1001
VECTORS displacement double
0.000000e+00 0.000000e+00 0.0
0.000000e+00 0.000000e+00 0.0
0.000000e+00 0.000000e+00 0.0
0.000000e+00 0.000000e+00 0.0
0.000000e+00 0.000000e+00 0.0
0.000000e+00 0.000000e+00 0.0
0.000000e+00 0.000000e+00 0.0
0.000000e+00 0.000000e+00 0.0
0.000000e+00 0.000000e+00 0.0
0.000000e+00 0.000000e+00 0.0
0.000000e+00 0.000000e+00 0.0
0.000000e+00 0.000000e+00 0.0
0.000000e+00 0.000000e+00 0.0
0.000000e+00 0.000000e+00 0.0
0.000000e+00 0.000000e+00 0.0
0.000000e+00 0.000000e+00 0.0
0.000000e+00 0.000000e+00 0.0
0.000000e+00 0.000000e+00 0.0
0.000000e+00 0.000000e+00 0.0
0.000000e+00 0.000000e+00 0.0
0.000000e+00 0.000000e+00 0.0
0.000000e+00 0.000000e+00 0.0
0.000000e+00 0.000000e+00 0.0
0.000000e+00 0.000000e+00 0.0
0.000000e+00 0.000000e+00 0.0
0.000000e+00 0.000000e+00 0.0
0.000000e+00 0.000000e+00 0.0
0.000000e+00 0.000000e+00 0.0
0.000000e+00 0.000000e+00 0.0
0.000000e+00 0.000000e+00 0.0
0.000000e+00 0.000000e+00 0.0
0.000000e+00 0.000000e+00 0.0
0.000000e+00 0.000000e+00 0.0
0.000000e+00 0.000000e+00 0.0
0.000000e+00 0.000000e+00 0.0
0.000000e+00 0.000000e+00 0.0
0.000000e+00 0.000000e+00 0.0
0.000000e+00 0.000000e+00 0.0
0.000000e+00 0.000000e+00 0.0
0.000000e+00 0.000000e+00 0.0
0.000000e+00 0.000000e+00 0.0
0.000000e+00 0.000000e+00 0.0
0.000000e+00 0.000000e+00 0.0
0.000000e+00 0.000000e+00 0.0
0.000000e+00 0.000000e+00 0.0
0.000000e+00 0.000000e+00 0.0
0.000000e+00 0.000000e+00 0.0
0.000000e+00 0.000000e+00 0.0
0.000000e+00 0.000000e+00 0.0
0.000000e+00 0.000000e+00 0.0
0.000000e+00 0.000000e+00 0.0
0.000000e+00 0.000000e+00 0.0
0.000000e+00 0.000000e+00 0.0
0.000000e+00 0.000000e+00 0.0
0.000000e+00 0.000000e+00 0.0
0.000000e+00 0.000000e+00 0.0
0.000000e+00 0.000000e+00 0.0
0.000000e+00 0.000000e+00 0.0
0.000000e+00 0.000000e+00 0.0
0.000000e+00 0.000000e+00 0.0
0.000000e+00 0.000000e+00 0.0
0.000000e+00 0.000000e+00 0.0
0.000000e+00 0.000000e+00 0.0
0.000000e+00 0.000000e+00 0.0
0.000000e+00 0.000000e+00 0.0
0.000000e+00 0.000000e+00 0.0
0.000000e+00 0.000000e+00 0.0
0.000000e+00 0.000000e+00 0.0
0.000000e+00 0.000000e+00 0.0
0.000000e+00 0.000000e+00 0.0
0.000000e+00 0.000000e+00 0.0
0.000000e+00 0.000000e+00 0.0
0.000000e+00 0.000000e+00 0.0
0.000000e+00 0.000000e+00 0.0
0.000000e+00 0.000000e+00 0.0
0.000000e+00 0.000000e+00 0.0
0.000000e+00 0.000000e+00 0.0
0.000000e+00 0.000000e+00 0.0
0.000000e+00 0.000000e+00 0.0
0.000000e+00 0.000000e+00 0.0
0.000000e+00 0.000000e+00 0.0
0.000000e+00 0.000000e+00 0.0
0.000000e+00 0.000000e+00 0.0
0.000000e+00 0.000000e+00 0.0
0.000000e+00 0.000000e+00 0.0
0.000000e+00 0.000000e+00 0.0
0.000000e+00 0.000000e+00 0.0
0.000000e+00 0.000000e+00 0.0
0.000000e+00 0.000000e+00 0.0
0.000000e+00 0.000000e+00 0.0
0.000000e+00 0.000000e+00 0.0
0.000000e+00 0.000000e+00 0.0
0.000000e+00 0.000000e+00 0.0
0.000000e+00 0.000000e+00 0.0
0.000000e+00 0.000000e+00 0.0
0.000000e+00 0.000000e+00 0.0
0.000000e+00 0.000000e+00 0.0
0.000000e+00 0.000000e+00 0.0
0.000000e+00 0.000000e+00 0.0
0.000000e+00 0.000000e+00 0.0
0.000000e+00 0.000000e+00 0.0
0.000000e+00 0.000000e+00 0.0
0.000000e+00 0.000000e+00 0.0
0.000000e+00 0.000000e+00 0.0
0.000000e+00 0.000000e+00 0.0
0.000000e+00 0.000000e+00 0.0
0.000000e+00 0.000000e+00 0.0
0.000000e+00 0.000000e+00 0.0
0.000000e+00 0.000000e+00 0.0
0.000000e+00 0.000000e+00 0.0
0.000000e+00 0.000000e+00 0.0
0.000000e+00 0.000000e+00 0.0
0.000000e+00 0.000000e+00 0.0
0.000000e+00 0.000000e+00 0.0
0.000000e+00 0.000000e+00 0.0
0.000000e+00 0.000000e+00 0.0
0.000000e+00 0.000000e+00 0.0
0.000000e+00 0.000000e+00 0.0
0.000000e+00 0.000000e+00 0.0
0.000000e+00 0.000000e+00 0.0
0.000000e+00 0.000000e+00 0.0
0.000000e+00 0.000000e+00 0.0
0.000000e+00 0.000000e+00 0.0
0.000000e+00 0.000000e+00 0.0
0.000000e+00 0.000000e+00 0.0
0.000000e+00 0.000000e+00 0.0
0.000000e+00 0.000000e+00 0.0
0.000000e+00 0.000000e+00 0.0
0.000000e+00 0.000000e+00 0.0
0.000000e+00 0.000000e+00 0.0
0.000000e+00 0.000000e+00 0.0
0.000000e+00 0.000000e+00 0.0
0.000000e+00 0.000000e+00 0.0
0.000000e+00 0.000000e+00 0.0
0.000000e+00 0.000000e+00 0.0
0.000000e+00 0.000000e+00 0.0
0.000000e+00 0.000000e+00 0.0
0.000000e+00 0.000000e+00 0.0
0.000000e+00 0.000000e+00 0.0
0.000000e+00 0.000000e+00 0.0
0.000000e+00 0.000000e+00 0.0
0.000000e+00 0.000000e+00 0.0
0.000000e+00 0.000000e+00 0.0
0.000000e+00 0.000000e+00 0.0
0.000000e+00 0.000000e+00 0.0
0.000000e+00 0.000000e+00 0.0
0.000000e+00 0.000000e+00 0.0
0.000000e+00 0.000000e+00 0.0
0.000000e+00 0.000000e+00 0.0
0.000000e+00 0.000000e+00 0.0
0.000000e+00 0.000000e+00 0.0
0.000000e+00 0.000000e+00 0.0
0.000000e+00 0.000000e+00 0.0
0.000000e+00 0.000000e+00 0.0
0.000000e+00 0.000000e+00 0.0
0.000000e+00 0.000000e+00 0.0
0.000000e+00 0.000000e+00 0.0
0.000000e+00 0.000000e+00 0.0
0.000000e+00 0.000000e+00 0.0
0.000000e+00 0.000000e+00 0.0
0.000000e+00 0.000000e+00 0.0
0.000000e+00 0.000000e+00 0.0
0.000000e+00 0.000000e+00 0.0
0.000000e+00 0.000000e+00 0.0
0.000000e+00 0.000000e+00 0.0
0.000000e+00 0.000000e+00 0.0
0.000000e+00 0.000000e+00 0.0
0.000000e+00 0.000000e+00 0.0
0.000000e+00 0.000000e+00 0.0
0.000000e+00 0.000000e+00 0.0
0.000000e+00 0.000000e+00 0.0
0.000000e+00 0.000000e+00 0.0
0.000000e+00 0.000000e+00 0.0
0.000000e+00 0.000000e+00 0.0
0.000000e+00 0.000000e+00 0.0
0.000000e+00 0.000000e+00 0.0
0.000000e+00 0.000000e+00 0.0
0.000000e+00 0.000000e+00 0.0
0.000000e+00 0.000000e+00 0.0
0.000000e+00 0.000000e+00 0.0
0.000000e+00 0.000000e+00 0.0
0.000000e+00 0.000000e+00 0.0
0.000000e+00 0.000000e+00 0.0
0.000000e+00 0.000000e+00 0.0
0.000000e+00 0.000000e+00 0.0
0.000000e+00 0.000000e+00 0.0
0.000000e+00 0.000000e+00 0.0
0.000000e+00 0.000000e+00 0.0
0.000000e+00 0.000000e+00 0.0
0.000000e+00 0.000000e+00 0.0
0.000000e+00 0.000000e+00 0.0
0.000000e+00 0.000000e+00 0.0
0.000000e+00 0.000000e+00 0.0
0.000000e+00 0.000000e+00 0.0
0.000000e+00 0.000000e+00 0.0
0.000000e+00 0.000000e+00 0.0
0.000000e+00 0.000000e+00 0.0
0.000000e+00 0.000000e+00 0.0
0.000000e+00 0.000000e+00 0.0
0.000000e+00 0.000000e+00 0.0
0.000000e+00 0.000000e+00 0.0
0.000000e+00 0.000000e+00 0.0
0.000000e+00 0.000000e+00 0.0
0.000000e+00 0.000000e+00 0.0
0.000000e+00 0.000000e+00 0.0
0.000000e+00 0.000000e+00 0.0
0.000000e+00 0.000000e+00 0.0
0.000000e+00 0.000000e+00 0.0
0.000000e+00 0.000000e+00 0.0
0.000000e+00 0.000000e+00 0.0
0.000000e+00 0.000000e+00 0.0
0.000000e+00 0.000000e+00 0.0
0.000000e+00 0.000000e+00 0.0
0.000000e+00 0.000000e+00 0.0
0.000000e+00 0.000000e+00 0.0
0.000000e+00 0.000000e+00 0.0
0.000000e+00 0.000000e+00 0.0
0.000000e+00 0.000000e+00 0.0
0.000000e+00 0.000000e+00 0.0
0.000000e+00 0.000000e+00 0.0
0.000000e+00 0.000000e+00 0.0
0.000000e+00 0.000000e+00 0.0
0.000000e+00 0.000000e+00 0.0
0.000000e+00 0.000000e+00 0.0
0.000000e+00 0.000000e+00 0.0
0.000000e+00 0.000000e+00 0.0
0.000000e+00 0.000000e+00 0.0
0.000000e+00 0.000000e+00 0.0
0.000000e+00 0.000000e+00 0.0
0.000000e+00 0.000000e+00 0.0
0.000000e+00 0.000000e+00 0.0
0.000000e+00 0.000000e+00 0.0
0.000000e+00 0.000000e+00 0.0
0.000000e+00 0.000000e+00 0.0
0.000000e+00 0.000000e+00 0.0
0.000000e+00 0.000000e+00 0.0
0.000000e+00 0.000000e+00 0.0
0.000000e+00 0.000000e+00 0.0
0.000000e+00 0.000000e+00 0.0
0.000000e+00 0.000000e+00 0.0
0.000000e+00 0.000000e+00 0.0
0.000000e+00 0.000000e+00 0.0
0.000000e+00 0.000000e+00 0.0
0.000000e+00 0.000000e+00 0.0
0.000000e+00 0.000000e+00 0.0
0.000000e+00 0.000000e+00 0.0
0.000000e+00 0.000000e+00 0.0
0.000000e+00 0.000000e+00 0.0
0.000000e+00 0.000000e+00 0.0
0.000000e+00 0.000000e+00 0.0
0.000000e+00 0.000000e+00 0.0
0.000000e+00 0.000000e+00 0.0
0.000000e+00 0.000000e+00 0.0
0.000000e+00 0.000000e+00 0.0
0.000000e+00 0.000000e+00 0.0
0.000000e+00 0.000000e+00 0.0
0.000000e+00 0.000000e+00 0.0
0.000000e+00 0.000000e+00 0.0
0.000000e+00 0.000000e+00 0.0
0.000000e+00 0.000000e+00 0.0
0.000000e+00 0.000000e+00 0.0
0.000000e+00 0.000000e+00 0.0
0.000000e+00 0.000000e+00 0.0
0.000000e+00 0.000000e+00 0.0
0.000000e+00 0.000000e+00 0.0
0.000000e+00 0.000000e+00 0.0
0.000000e+00 0.000000e+00 0.0
0.000000e+00 0.000000e+00 0.0
0.000000e+00 0.000000e+00 0.0
0.000000e+00 0.000000e+00 0.0
0.000000e+00 0.000000e+00 0.0
0.000000e+00 0.000000e+00 0.0
0.000000e+00 0.000000e+00 0.0
0.000000e+00 0.000000e+00 0.0
0.000000e+00 0.000000e+00 0.0
0.000000e+00 0.000000e+00 0.0
0.000000e+00 0.000000e+00 0.0
0.000000e+00 0.000000e+00 0.0
0.000000e+00 0.000000e+00 0.0
0.000000e+00 0.000000e+00 0.0
0.000000e+00 0.000000e+00 0.0
0.000000e+00 0.000000e+00 0.0
0.000000e+00 0.000000e+00 0.0
0.000000e+00 0.000000e+00 0.0
0.000000e+00 0.000000e+00 0.0
0.000000e+00 0.000000e+00 0.0
0.000000e+00 0.000000e+00 0.0
0.000000e+00 0.000000e+00 0.0
0.000000e+00 0.000000e+00 0.0
0.000000e+00 0.000000e+00 0.0
0.000000e+00 0.000000e+00 0.0
0.000000e+00 0.000000e+00 0.0
0.000000e+00 0.000000e+00 0.0
0.000000e+00 0.000000e+00 0.0
0.000000e+00 0.000000e+00 0.0
0.000000e+00 0.000000e+00 0.0
0.000000e+00 0.000000e+00 0.0
0.000000e+00 0.000000e+00 0.0
0.000000e+00 0.000000e+00 0.0
0.000000e+00 0.000000e+00 0.0
0.000000e+00 0.000000e+00 0.0
0.000000e+00 0.000000e+00 0.0
0.000000e+00 0.000000e+00 0.0
0.000000e+00 0.000000e+00 0.0
0.000000e+00 0.000000e+00 0.0
0.000000e+00 0.000000e+00 0.0
0.000000e+00 0.000000e+00 0.0
0.000000e+00 0.000000e+00 0.0
0.000000e+00 0.000000e+00 0.0
0.000000e+00 0.000000e+00 0.0
0.000000e+00 0.000000e+00 0.0
0.000000e+00 0.000000e+00 0.0
0.000000e+00 0.000000e+00 0.0
0.000000e+00 0.000000e+00 0.0
0.000000e+00 0.000000e+00 0.0
0.000000e+00 0.000000e+00 0.0
0.000000e+00 0.000000e+00 0.0
0.000000e+00 0.000000e+00 0.0
0.000000e+00 0.000000e+00 0.0
0.000000e+00 0.000000e+00 0.0
0.000000e+00 0.000000e+00 0.0
0.000000e+00 0.000000e+00 0.0
0.000000e+00 0.000000e+00 0.0
0.000000e+00 0.000000e+00 0.0
0.000000e+00 0.000000e+00 0.0
0.000000e+00 0.000000e+00 0.0
0.000000e+00 0.000000e+00 0.0
0.000000e+00 0.000000e+00 0.0
0.000000e+00 0.000000e+00 0.0
0.000000e+00 0.000000e+00 0.0
0.000000e+00 0.000000e+00 0.0
0.000000e+00 0.000000e+00 0.0
0.000000e+00 0.000000e+00 0.0
0.000000e+00 0.000000e+00 0.0
0.000000e+00 0.000000e+00 0.0
0.000000e+00 0.000000e+00 0.0
0.000000e+00 0.000000e+00 0.0
0.000000e+00 0.000000e+00 0.0
0.000000e+00 0.000000e+00 0.0
0.000000e+00 0.000000e+00 0.0
0.000000e+00 0.000000e+00 0.0
0.000000e+00 0.000000e+00 0.0
0.000000e+00 0.000000e+00 0.0
0.000000e+00 0.000000e+00 0.0
0.000000e+00 0.000000e+00 0.0
0.000000e+00 0.000000e+00 0.0
0.000000e+00 0.000000e+00 0.0
0.000000e+00 0.000000e+00 0.0
0.000000e+00 0.000000e+00 0.0
0.000000e+00 0.000000e+00 0.0
0.000000e+00 0.000000e+00 0.0
0.000000e+00 0.000000e+00 0.0
0.000000e+00 0.000000e+00 0.0
0.000000e+00 0.000000e+00 0.0
0.000000e+00 0.000000e+00 0.0
0.000000e+00 0.000000e+00 0.0
0.000000e+00 0.000000e+00 0.0
0.000000e+00 0.000000e+00 0.0
0.000000e+00 0.000000e+00 0.0
0.000000e+00 0.000000e+00 0.0
0.000000e+00 0.000000e+00 0.0
0.000000e+00 0.000000e+00 0.0
0.000000e+00 0.000000e+00 0.0
0.000000e+00 0.000000e+00 0.0
0.000000e+00 0.000000e+00 0.0
0.000000e+00 0.000000e+00 0.0
0.000000e+00 0.000000e+00 0.0
0.000000e+00 0.000000e+00 0.0
0.000000e+00 0.000000e+00 0.0
0.000000e+00 0.000000e+00 0.0
0.000000e+00 0.000000e+00 0.0
0.000000e+00 0.000000e+00 0.0
0.000000e+00 0.000000e+00 0.0
0.000000e+00 0.000000e+00 0.0
0.000000e+00 0.000000e+00 0.0
0.000000e+00 0.000000e+00 0.0
0.000000e+00 0.000000e+00 0.0
0.000000e+00 0.000000e+00 0.0
0.000000e+00 0.000000e+00 0.0
0.000000e+00 0.000000e+00 0.0
0.000000e+00 0.000000e+00 0.0
0.000000e+00 0.000000e+00 0.0
0.000000e+00 0.000000e+00 0.0
0.000000e+00 0.000000e+00 0.0
0.000000e+00 0.000000e+00 0.0
0.000000e+00 0.000000e+00 0.0
0.000000e+00 0.000000e+00 0.0
0.000000e+00 0.000000e+00 0.0
0.000000e+00 0.000000e+00 0.0
0.000000e+00 0.000000e+00 0.0
0.000000e+00 0.000000e+00 0.0
0.000000e+00 0.000000e+00 0.0
0.000000e+00 0.000000e+00 0.0
0.000000e+00 0.000000e+00 0.0
0.000000e+00 0.000000e+00 0.0
0.000000e+00 0.000000e+00 0.0
0.000000e+00 0.000000e+00 0.0
0.000000e+00 0.000000e+00 0.0
0.000000e+00 0.000000e+00 0.0
0.000000e+00 0.000000e+00 0.0
0.000000e+00 0.000000e+00 0.0
0.000000e+00 0.000000e+00 0.0
0.000000e+00 0.000000e+00 0.0
0.000000e+00 0.000000e+00 0.0
0.000000e+00 0.000000e+00 0.0
0.000000e+00 0.000000e+00 0.0
0.000000e+00 0.000000e+00 0.0
0.000000e+00 0.000000e+00 0.0
0.000000e+00 0.000000e+00 0.0
0.000000e+00 0.000000e+00 0.0
0.000000e+00 0.000000e+00 0.0
0.000000e+00 0.000000e+00 0.0
0.000000e+00 0.000000e+00 0.0
0.000000e+00 0.000000e+00 0.0
0.000000e+00 0.000000e+00 0.0
0.000000e+00 0.000000e+00 0.0
0.000000e+00 0.000000e+00 0.0
0.000000e+00 0.000000e+00 0.0
0.000000e+00 0.000000e+00 0.0
0.000000e+00 0.000000e+00 0.0
0.000000e+00 0.000000e+00 0.0
0.000000e+00 0.000000e+00 0.0
0.000000e+00 0.000000e+00 0.0
0.000000e+00 0.000000e+00 0.0
0.000000e+00 0.000000e+00 0.0
0.000000e+00 0.000000e+00 0.0
0.000000e+00 0.000000e+00 0.0
0.000000e+00 0.000000e+00 0.0
0.000000e+00 0.000000e+00 0.0
0.000000e+00 0.000000e+00 0.0
0.000000e+00 0.000000e+00 0.0
0.000000e+00 0.000000e+00 0.0
0.000000e+00 0.000000e+00 0.0
0.000000e+00 0.000000e+00 0.0
0.000000e+00 0.000000e+00 0.0
0.000000e+00 0.000000e+00 0.0
0.000000e+00 0.000000e+00 0.0
0.000000e+00 0.000000e+00 0.0
0.000000e+00 0.000000e+00 0.0
0.000000e+00 0.000000e+00 0.0
0.000000e+00 0.000000e+00 0.0
0.000000e+00 0.000000e+00 0.0
0.000000e+00 0.000000e+00 0.0
0.000000e+00 0.000000e+00 0.0
0.000000e+00 0.000000e+00 0.0
0.000000e+00 0.000000e+00 0.0
0.000000e+00 0.000000e+00 0.0
0.000000e+00 0.000000e+00 0.0
0.000000e+00 0.000000e+00 0.0
0.000000e+00 0.000000e+00 0.0
0.000000e+00 0.000000e+00 0.0
0.000000e+00 0.000000e+00 0.0
0.000000e+00 0.000000e+00 0.0
0.000000e+00 0.000000e+00 0.0
0.000000e+00 0.000000e+00 0.0
0.000000e+00 0.000000e+00 0.0
0.000000e+00 0.000000e+00 0.0
0.000000e+00 0.000000e+00 0.0
0.000000e+00 0.000000e+00 0.0
0.000000e+00 0.000000e+00 0.0
0.000000e+00 0.000000e+00 0.0
0.000000e+00 0.000000e+00 0.0
0.000000e+00 0.000000e+00 0.0
0.000000e+00 0.000000e+00 0.0
0.000000e+00 0.000000e+00 0.0
0.000000e+00 0.000000e+00 0.0
0.000000e+00 0.000000e+00 0.0
0.000000e+00 0.000000e+00 0.0
0.000000e+00 0.000000e+00 0.0
0.000000e+00 0.000000e+00 0.0
0.000000e+00 0.000000e+00 0.0
0.000000e+00 0.000000e+00 0.0
0.000000e+00 0.000000e+00 0.0
0.000000e+00 0.000000e+00 0.0
0.000000e+00 0.000000e+00 0.0
0.000000e+00 0.000000e+00 0.0
0.000000e+00 0.000000e+00 0.0
0.000000e+00 0.000000e+00 0.0
0.000000e+00 0.000000e+00 0.0
0.000000e+00 0.000000e+00 0.0
0.000000e+00 0.000000e+00 0.0
0.000000e+00 0.000000e+00 0.0
0.000000e+00 0.000000e+00 0.0
0.000000e+00 0.000000e+00 0.0
0.000000e+00 0.000000e+00 0.0
0.000000e+00 0.000000e+00 0.0
0.000000e+00 0.000000e+00 0.0
0.000000e+00 0.000000e+00 0.0
0.000000e+00 0.000000e+00 0.0
0.000000e+00 0.000000e+00 0.0
0.000000e+00 0.000000e+00 0.0
0.000000e+00 0.000000e+00 0.0
0.000000e+00 0.000000e+00 0.0
0.000000e+00 0.000000e+00 0.0
0.000000e+00 0.000000e+00 0.0
0.000000e+00 0.000000e+00 0.0
0.000000e+00 0.000000e+00 0.0
0.000000e+00 0.000000e+00 0.0
0.000000e+00 0.000000e+00 0.0
0.000000e+00 0.000000e+00 0.0
0.000000e+00 0.000000e+00 0.0
0.000000e+00 0.000000e+00 0.0
0.000000e+00 0.000000e+00 0.0
0.000000e+00 0.000000e+00 0.0
0.000000e+00 0.000000e+00 0.0
0.000000e+00 0.000000e+00 0.0
0.000000e+00 0.000000e+00 0.0
0.000000e+00 0.000000e+00 0.0
0.000000e+00 0.000000e+00 0.0
0.000000e+00 0.000000e+00 0.0
0.000000e+00 0.000000e+00 0.0
0.000000e+00 0.000000e+00 0.0
0.000000e+00 0.000000e+00 0.0
0.000000e+00 0.000000e+00 0.0
0.000000e+00 0.000000e+00 0.0
0.000000e+00 0.000000e+00 0.0
0.000000e+00 0.000000e+00 0.0
0.000000e+00 0.000000e+00 0.0
0.000000e+00 0.000000e+00 0.0
0.000000e+00 0.000000e+00 0.0
0.000000e+00 0.000000e+00 0.0
0.000000e+00 0.000000e+00 0.0
0.000000e+00 0.000000e+00 0.0
0.000000e+00 0.000000e+00 0.0
0.000000e+00 0.000000e+00 0.0
0.000000e+00 0.000000e+00 0.0
0.000000e+00 0.000000e+00 0.0
0.000000e+00 0.000000e+00 0.0
0.000000e+00 0.000000e+00 0.0
0.000000e+00 0.000000e+00 0.0
0.000000e+00 0.000000e+00 0.0
0.000000e+00 0.000000e+00 0.0
0.000000e+00 0.000000e+00 0.0
0.000000e+00 0.000000e+00 0.0
0.000000e+00 0.000000e+00 0.0
0.000000e+00 0.000000e+00 0.0
0.000000e+00 0.000000e+00 0.0
0.000000e+00 0.000000e+00 0.0
0.000000e+00 0.000000e+00 0.0
0.000000e+00 0.000000e+00 0.0
0.000000e+00 0.000000e+00 0.0
0.000000e+00 0.000000e+00 0.0
0.000000e+00 0.000000e+00 0.0
0.000000e+00 0.000000e+00 0.0
0.000000e+00 0.000000e+00 0.0
0.000000e+00 0.000000e+00 0.0
0.000000e+00 0.000000e+00 0.0
0.000000e+00 0.000000e+00 0.0
0.000000e+00 0.000000e+00 0.0
0.000000e+00 0.000000e+00 0.0
0.000000e+00 0.000000e+00 0.0
0.000000e+00 0.000000e+00 0.0
0.000000e+00 0.000000e+00 0.0
0.000000e+00 0.000000e+00 0.0
0.000000e+00 0.000000e+00 0.0
0.000000e+00 0.000000e+00 0.0
0.000000e+00 0.000000e+00 0.0
0.000000e+00 0.000000e+00 0.0
0.000000e+00 0.000000e+00 0.0
0.000000e+00 0.000000e+00 0.0
0.000000e+00 0.000000e+00 0.0
0.000000e+00 0.000000e+00 0.0
0.000000e+00 0.000000e+00 0.0
0.000000e+00 0.000000e+00 0.0
0.000000e+00 0.000000e+00 0.0
0.000000e+00 0.000000e+00 0.0
0.000000e+00 0.000000e+00 0.0
0.000000e+00 0.000000e+00 0.0
0.000000e+00 0.000000e+00 0.0
0.000000e+00 0.000000e+00 0.0
0.000000e+00 0.000000e+00 0.0
0.000000e+00 0.000000e+00 0.0
0.000000e+00 0.000000e+00 0.0
0.000000e+00 0.000000e+00 0.0
0.000000e+00 0.000000e+00 0.0
0.000000e+00 0.000000e+00 0.0
0.000000e+00 0.000000e+00 0.0
0.000000e+00 0.000000e+00 0.0
0.000000e+00 0.000000e+00 0.0
0.000000e+00 0.000000e+00 0.0
0.000000e+00 0.000000e+00 0.0
0.000000e+00 0.000000e+00 0.0
0.000000e+00 0.000000e+00 0.0
0.000000e+00 0.000000e+00 0.0
0.000000e+00 0.000000e+00 0.0
0.000000e+00 0.000000e+00 0.0
0.000000e+00 0.000000e+00 0.0
0.000000e+00 0.000000e+00 0.0
0.000000e+00 0.000000e+00 0.0
0.000000e+00 0.000000e+00 0.0
0.000000e+00 0.000000e+00 0.0
0.000000e+00 0.000000e+00 0.0
0.000000e+00 0.000000e+00 0.0
0.000000e+00 0.000000e+00 0.0
0.000000e+00 0.000000e+00 0.0
0.000000e+00 0.000000e+00 0.0
0.000000e+00 0.000000e+00 0.0
0.000000e+00 0.000000e+00 0.0
0.000000e+00 0.000000e+00 0.0
0.000000e+00 0.000000e+00 0.0
0.000000e+00 0.000000e+00 0.0
0.000000e+00 0.000000e+00 0.0
0.000000e+00 0.000000e+00 0.0
0.000000e+00 0.000000e+00 0.0
0.000000e+00 0.000000e+00 0.0
0.000000e+00 0.000000e+00 0.0
0.000000e+00 0.000000e+00 0.0
0.000000e+00 0.000000e+00 0.0
0.000000e+00 0.000000e+00 0.0
0.000000e+00 0.000000e+00 0.0
0.000000e+00 0.000000e+00 0.0
0.000000e+00 0.000000e+00 0.0
0.000000e+00 0.000000e+00 0.0
0.000000e+00 0.000000e+00 0.0
0.000000e+00 0.000000e+00 0.0
0.000000e+00 0.000000e+00 0.0
0.000000e+00 0.000000e+00 0.0
0.000000e+00 0.000000e+00 0.0
0.000000e+00 0.000000e+00 0.0
0.000000e+00 0.000000e+00 0.0
0.000000e+00 0.000000e+00 0.0
0.000000e+00 0.000000e+00 0.0
0.000000e+00 0.000000e+00 0.0
0.000000e+00 0.000000e+00 0.0
0.000000e+00 0.000000e+00 0.0
0.000000e+00 0.000000e+00 0.0
0.000000e+00 0.000000e+00 0.0
0.000000e+00 0.000000e+00 0.0
0.000000e+00 0.000000e+00 0.0
0.000000e+00 0.000000e+00 0.0
0.000000e+00 0.000000e+00 0.0
0.000000e+00 0.000000e+00 0.0
0.000000e+00 0.000000e+00 0.0
0.000000e+00 0.000000e+00 0.0
0.000000e+00 0.000000e+00 0.0
0.000000e+00 0.000000e+00 0.0
0.000000e+00 0.000000e+00 0.0
0.000000e+00 0.000000e+00 0.0
0.000000e+00 0.000000e+00 0.0
0.000000e+00 0.000000e+00 0.0
0.000000e+00 0.000000e+00 0.0
0.000000e+00 0.000000e+00 0.0
0.000000e+00 0.000000e+00 0.0
0.000000e+00 0.000000e+00 0.0
0.000000e+00 0.000000e+00 0.0
0.000000e+00 0.000000e+00 0.0
0.000000e+00 0.000000e+00 0.0
0.000000e+00 0.000000e+00 0.0
0.000000e+00 0.000000e+00 0.0
0.000000e+00 0.000000e+00 0.0
0.000000e+00 0.000000e+00 0.0
0.000000e+00 0.000000e+00 0.0
0.000000e+00 0.000000e+00 0.0
0.000000e+00 0.000000e+00 0.0
0.000000e+00 0.000000e+00 0.0
0.000000e+00 0.000000e+00 0.0
0.000000e+00 0.000000e+00 0.0
0.000000e+00 0.000000e+00 0.0
0.000000e+00 0.000000e+00 0.0
0.000000e+00 0.000000e+00 0.0
0.000000e+00 0.000000e+00 0.0
0.000000e+00 0.000000e+00 0.0
0.000000e+00 0.000000e+00 0.0
0.000000e+00 0.000000e+00 0.0
0.000000e+00 0.000000e+00 0.0