# vtk DataFile Version 2.0
Simplicial Mesh Example
ASCII
DATASET UNSTRUCTURED_GRID
POINTS 1001 double
4.900000e+04 5.000000e+02 0.0
4.910000e+04 5.000000e+02 0.0
4.770000e+04 5.000000e+02 0.0
4.780000e+04 5.000000e+02 0.0
4.640000e+04 5.000000e+02 0.0
4.650000e+04 5.000000e+02 0.0
4.510000e+04 5.000000e+02 0.0
4.520000e+04 5.000000e+02 0.0
4.380000e+04 5.000000e+02 0.0
4.390000e+04 5.000000e+02 0.0
4.250000e+04 5.000000e+02 0.0
4.260000e+04 5.000000e+02 0.0
4.120000e+04 5.000000e+02 0.0
4.130000e+04 5.000000e+02 0.0
3.990000e+04 5.000000e+02 0.0
4.000000e+04 5.000000e+02 0.0
3.860000e+04 5.000000e+02 0.0
3.870000e+04 5.000000e+02 0.0
3.730000e+04 5.000000e+02 0.0
3.740000e+04 5.000000e+02 0.0
3.600000e+04 5.000000e+02 0.0
3.610000e+04 5.000000e+02 0.0
3.460000e+04 5.000000e+02 0.0
3.470000e+04 5.000000e+02 0.0
3.330000e+04 5.000000e+02 0.0
3.340000e+04 5.000000e+02 0.0
3.200000e+04 5.000000e+02 0.0
3.210000e+04 5.000000e+02 0.0
3.060000e+04 5.000000e+02 0.0
3.070000e+04 5.000000e+02 0.0
2.930000e+04 5.000000e+02 0.0
2.940000e+04 5.000000e+02 0.0
2.800000e+04 5.000000e+02 0.0
2.810000e+04 5.000000e+02 0.0
2.660000e+04 5.000000e+02 0.0
2.670000e+04 5.000000e+02 0.0
2.520000e+04 5.000000e+02 0.0
2.530000e+04 5.000000e+02 0.0
2.390000e+04 5.000000e+02 0.0
2.400000e+04 5.000000e+02 0.0
2.250000e+04 5.000000e+02 0.0
2.260000e+04 5.000000e+02 0.0
2.110000e+04 5.000000e+02 0.0
2.120000e+04 5.000000e+02 0.0
1.980000e+04 5.000000e+02 0.0
1.990000e+04 5.000000e+02 0.0
1.840000e+04 5.000000e+02 0.0
1.850000e+04 5.000000e+02 0.0
1.700000e+04 5.000000e+02 0.0
1.710000e+04 5.000000e+02 0.0
1.560000e+04 5.000000e+02 0.0
1.570000e+04 5.000000e+02 0.0
1.420000e+04 5.000000e+02 0.0
1.430000e+04 5.000000e+02 0.0
1.270000e+04 5.000000e+02 0.0
1.280000e+04 5.000000e+02 0.0
1.130000e+04 5.000000e+02 0.0
1.140000e+04 5.000000e+02 0.0
9.900000e+03 5.000000e+02 0.0
1.000000e+04 5.000000e+02 0.0
8.500000e+03 5.000000e+02 0.0
8.600000e+03 5.000000e+02 0.0
7.000000e+03 5.000000e+02 0.0
7.100000e+03 5.000000e+02 0.0
5.600000e+03 5.000000e+02 0.0
5.700000e+03 5.000000e+02 0.0
4.100000e+03 5.000000e+02 0.0
4.200000e+03 5.000000e+02 0.0
2.600000e+03 5.000000e+02 0.0
2.700000e+03 5.000000e+02 0.0
1.100000e+03 5.000000e+02 0.0
1.200000e+03 5.000000e+02 0.0
-3.000000e+02 5.000000e+02 0.0
-2.000000e+02 5.000000e+02 0.0
-1.800000e+03 5.000000e+02 0.0
-1.700000e+03 5.000000e+02 0.0
-3.400000e+03 5.000000e+02 0.0
-3.300000e+03 5.000000e+02 0.0
-4.900000e+03 5.000000e+02 0.0
-4.800000e+03 5.000000e+02 0.0
-6.400000e+03 5.000000e+02 0.0
-6.300000e+03 5.000000e+02 0.0
-8.000000e+03 5.000000e+02 0.0
-7.900000e+03 5.000000e+02 0.0
-9.500000e+03 5.000000e+02 0.0
-9.400000e+03 5.000000e+02 0.0
-1.110000e+04 5.000000e+02 0.0
-1.100000e+04 5.000000e+02 0.0
-1.270000e+04 5.000000e+02 0.0
-1.260000e+04 5.000000e+02 0.0
-1.430000e+04 5.000000e+02 0.0
-1.420000e+04 5.000000e+02 0.0
-1.590000e+04 5.000000e+02 0.0
-1.580000e+04 5.000000e+02 0.0
-1.750000e+04 5.000000e+02 0.0
-1.740000e+04 5.000000e+02 0.0
-1.920000e+04 5.000000e+02 0.0
-1.910000e+04 5.000000e+02 0.0
-2.080000e+04 5.000000e+02 0.0
-2.070000e+04 5.000000e+02 0.0
-2.250000e+04 5.000000e+02 0.0
-2.240000e+04 5.000000e+02 0.0
-2.420000e+04 5.000000e+02 0.0
-2.410000e+04 5.000000e+02 0.0
-2.590000e+04 5.000000e+02 0.0
-2.580000e+04 5.000000e+02 0.0
-2.770000e+04 5.000000e+02 0.0
-2.760000e+04 5.000000e+02 0.0
-2.940000e+04 5.000000e+02 0.0
-2.930000e+04 5.000000e+02 0.0
-3.120000e+04 5.000000e+02 0.0
-3.110000e+04 5.000000e+02 0.0
-3.310000e+04 5.000000e+02 0.0
-3.300000e+04 5.000000e+02 0.0
-3.490000e+04 5.000000e+02 0.0
-3.480000e+04 5.000000e+02 0.0
-3.680000e+04 5.000000e+02 0.0
-3.670000e+04 5.000000e+02 0.0
-3.760000e+04 5.000000e+02 0.0
-3.750000e+04 5.000000e+02 0.0
-3.770000e+04 5.000000e+02 0.0
-3.780000e+04 5.000000e+02 0.0
-3.790000e+04 5.000000e+02 0.0
-3.800000e+04 5.000000e+02 0.0
-3.820000e+04 5.000000e+02 0.0
-3.830000e+04 5.000000e+02 0.0
-3.840000e+04 5.000000e+02 0.0
-3.850000e+04 5.000000e+02 0.0
-3.860000e+04 5.000000e+02 0.0
-3.870000e+04 5.000000e+02 0.0
-3.900000e+04 5.000000e+02 0.0
-3.890000e+04 5.000000e+02 0.0
-3.910000e+04 5.000000e+02 0.0
-3.920000e+04 5.000000e+02 0.0
-3.930000e+04 5.000000e+02 0.0
-3.940000e+04 5.000000e+02 0.0
-3.960000e+04 5.000000e+02 0.0
-3.970000e+04 5.000000e+02 0.0
-3.980000e+04 5.000000e+02 0.0
-3.990000e+04 5.000000e+02 0.0
-4.000000e+04 5.000000e+02 0.0
-4.010000e+04 5.000000e+02 0.0
-4.020000e+04 5.000000e+02 0.0
-4.050000e+04 5.000000e+02 0.0
-4.040000e+04 5.000000e+02 0.0
-4.060000e+04 5.000000e+02 0.0
-4.070000e+04 5.000000e+02 0.0
-4.080000e+04 5.000000e+02 0.0
-4.090000e+04 5.000000e+02 0.0
-4.100000e+04 5.000000e+02 0.0
-4.110000e+04 5.000000e+02 0.0
-4.130000e+04 5.000000e+02 0.0
-4.140000e+04 5.000000e+02 0.0
-4.150000e+04 5.000000e+02 0.0
-4.160000e+04 5.000000e+02 0.0
-4.170000e+04 5.000000e+02 0.0
-4.180000e+04 5.000000e+02 0.0
-4.190000e+04 5.000000e+02 0.0
-4.200000e+04 5.000000e+02 0.0
-4.210000e+04 5.000000e+02 0.0
-4.230000e+04 5.000000e+02 0.0
-4.240000e+04 5.000000e+02 0.0
-4.250000e+04 5.000000e+02 0.0
-4.260000e+04 5.000000e+02 0.0
-4.270000e+04 5.000000e+02 0.0
-4.280000e+04 5.000000e+02 0.0
-4.290000e+04 5.000000e+02 0.0
-4.300000e+04 5.000000e+02 0.0
-4.310000e+04 5.000000e+02 0.0
-4.330000e+04 5.000000e+02 0.0
-4.340000e+04 5.000000e+02 0.0
-4.350000e+04 5.000000e+02 0.0
-4.360000e+04 5.000000e+02 0.0
-4.370000e+04 5.000000e+02 0.0
-4.380000e+04 5.000000e+02 0.0
-4.390000e+04 5.000000e+02 0.0
-4.400000e+04 5.000000e+02 0.0
-4.410000e+04 5.000000e+02 0.0
-4.420000e+04 5.000000e+02 0.0
-4.430000e+04 5.000000e+02 0.0
-4.440000e+04 5.000000e+02 0.0
-4.470000e+04 5.000000e+02 0.0
-4.460000e+04 5.000000e+02 0.0
-4.480000e+04 5.000000e+02 0.0
-4.490000e+04 5.000000e+02 0.0
-4.500000e+04 5.000000e+02 0.0
-4.510000e+04 5.000000e+02 0.0
-4.520000e+04 5.000000e+02 0.0
-4.530000e+04 5.000000e+02 0.0
-4.540000e+04 5.000000e+02 0.0
-4.550000e+04 5.000000e+02 0.0
-4.560000e+04 5.000000e+02 0.0
-4.570000e+04 5.000000e+02 0.0
-4.580000e+04 5.000000e+02 0.0
-4.590000e+04 5.000000e+02 0.0
-4.600000e+04 5.000000e+02 0.0
-4.630000e+04 5.000000e+02 0.0
-4.620000e+04 5.000000e+02 0.0
-4.640000e+04 5.000000e+02 0.0
-4.650000e+04 5.000000e+02 0.0
-4.660000e+04 5.000000e+02 0.0
-4.670000e+04 5.000000e+02 0.0
-4.680000e+04 5.000000e+02 0.0
-4.690000e+04 5.000000e+02 0.0
-4.700000e+04 5.000000e+02 0.0
-4.710000e+04 5.000000e+02 0.0
-4.720000e+04 5.000000e+02 0.0
-4.730000e+04 5.000000e+02 0.0
-4.740000e+04 5.000000e+02 0.0
-4.750000e+04 5.000000e+02 0.0
-4.760000e+04 5.000000e+02 0.0
-4.770000e+04 5.000000e+02 0.0
-4.780000e+04 5.000000e+02 0.0
-4.790000e+04 5.000000e+02 0.0
-4.800000e+04 5.000000e+02 0.0
-4.810000e+04 5.000000e+02 0.0
-4.820000e+04 5.000000e+02 0.0
-4.830000e+04 5.000000e+02 0.0
-4.840000e+04 5.000000e+02 0.0
-4.850000e+04 5.000000e+02 0.0
-4.860000e+04 5.000000e+02 0.0
-4.870000e+04 5.000000e+02 0.0
-4.880000e+04 5.000000e+02 0.0
-4.890000e+04 5.000000e+02 0.0
-4.900000e+04 5.000000e+02 0.0
-4.910000e+04 5.000000e+02 0.0
-4.920000e+04 5.000000e+02 0.0
-4.930000e+04 5.000000e+02 0.0
-4.940000e+04 5.000000e+02 0.0
-4.950000e+04 5.000000e+02 0.0
-4.960000e+04 5.000000e+02 0.0
-4.970000e+04 5.000000e+02 0.0
-4.980000e+04 5.000000e+02 0.0
-5.000000e+04 5.000000e+02 0.0
-4.990000e+04 5.000000e+02 0.0
-4.610000e+04 5.000000e+02 0.0
-4.450000e+04 5.000000e+02 0.0
-4.320000e+04 5.000000e+02 0.0
-4.220000e+04 5.000000e+02 0.0
-4.120000e+04 5.000000e+02 0.0
-4.030000e+04 5.000000e+02 0.0
-3.950000e+04 5.000000e+02 0.0
-3.880000e+04 5.000000e+02 0.0
-3.810000e+04 5.000000e+02 0.0
-3.740000e+04 5.000000e+02 0.0
-3.730000e+04 5.000000e+02 0.0
-3.720000e+04 5.000000e+02 0.0
-3.710000e+04 5.000000e+02 0.0
-3.700000e+04 5.000000e+02 0.0
-3.690000e+04 5.000000e+02 0.0
-3.660000e+04 5.000000e+02 0.0
-3.650000e+04 5.000000e+02 0.0
-3.640000e+04 5.000000e+02 0.0
-3.630000e+04 5.000000e+02 0.0
-3.620000e+04 5.000000e+02 0.0
-3.610000e+04 5.000000e+02 0.0
-3.600000e+04 5.000000e+02 0.0
-3.590000e+04 5.000000e+02 0.0
-3.580000e+04 5.000000e+02 0.0
-3.570000e+04 5.000000e+02 0.0
-3.560000e+04 5.000000e+02 0.0
-3.550000e+04 5.000000e+02 0.0
-3.540000e+04 5.000000e+02 0.0
-3.530000e+04 5.000000e+02 0.0
-3.520000e+04 5.000000e+02 0.0
-3.510000e+04 5.000000e+02 0.0
-3.500000e+04 5.000000e+02 0.0
-3.470000e+04 5.000000e+02 0.0
-3.460000e+04 5.000000e+02 0.0
-3.450000e+04 5.000000e+02 0.0
-3.440000e+04 5.000000e+02 0.0
-3.430000e+04 5.000000e+02 0.0
-3.420000e+04 5.000000e+02 0.0
-3.410000e+04 5.000000e+02 0.0
-3.400000e+04 5.000000e+02 0.0
-3.390000e+04 5.000000e+02 0.0
-3.380000e+04 5.000000e+02 0.0
-3.370000e+04 5.000000e+02 0.0
-3.360000e+04 5.000000e+02 0.0
-3.350000e+04 5.000000e+02 0.0
-3.340000e+04 5.000000e+02 0.0
-3.330000e+04 5.000000e+02 0.0
-3.320000e+04 5.000000e+02 0.0
-3.290000e+04 5.000000e+02 0.0
-3.280000e+04 5.000000e+02 0.0
-3.270000e+04 5.000000e+02 0.0
-3.260000e+04 5.000000e+02 0.0
-3.250000e+04 5.000000e+02 0.0
-3.240000e+04 5.000000e+02 0.0
-3.230000e+04 5.000000e+02 0.0
-3.220000e+04 5.000000e+02 0.0
-3.210000e+04 5.000000e+02 0.0
-3.200000e+04 5.000000e+02 0.0
-3.190000e+04 5.000000e+02 0.0
-3.180000e+04 5.000000e+02 0.0
-3.170000e+04 5.000000e+02 0.0
-3.160000e+04 5.000000e+02 0.0
-3.150000e+04 5.000000e+02 0.0
-3.140000e+04 5.000000e+02 0.0
-3.130000e+04 5.000000e+02 0.0
-3.100000e+04 5.000000e+02 0.0
-3.090000e+04 5.000000e+02 0.0
-3.080000e+04 5.000000e+02 0.0
-3.070000e+04 5.000000e+02 0.0
-3.060000e+04 5.000000e+02 0.0
-3.050000e+04 5.000000e+02 0.0
-3.040000e+04 5.000000e+02 0.0
-3.030000e+04 5.000000e+02 0.0
-3.020000e+04 5.000000e+02 0.0
-3.010000e+04 5.000000e+02 0.0
-3.000000e+04 5.000000e+02 0.0
-2.990000e+04 5.000000e+02 0.0
-2.980000e+04 5.000000e+02 0.0
-2.970000e+04 5.000000e+02 0.0
-2.960000e+04 5.000000e+02 0.0
-2.950000e+04 5.000000e+02 0.0
-2.920000e+04 5.000000e+02 0.0
-2.910000e+04 5.000000e+02 0.0
-2.900000e+04 5.000000e+02 0.0
-2.890000e+04 5.000000e+02 0.0
-2.880000e+04 5.000000e+02 0.0
[...]
POINT_DATA 1001
VECTORS displacement double
1.589498e-01 -2.262418e-03 0.0
1.592712e-01 -2.246070e-03 0.0
1.547947e-01 -2.337859e-03 0.0
1.551133e-01 -2.342823e-03 0.0
1.506473e-01 -2.096741e-03 0.0
1.509673e-01 -2.126090e-03 0.0
1.464576e-01 -1.613099e-03 0.0
1.467821e-01 -1.654183e-03 0.0
1.422036e-01 -1.114728e-03 0.0
1.425329e-01 -1.147746e-03 0.0
1.379036e-01 -8.339540e-04 0.0
1.382350e-01 -8.444574e-04 0.0
1.336021e-01 -8.684669e-04 0.0
1.339319e-01 -8.555751e-04 0.0
1.293436e-01 -1.128395e-03 0.0
1.296690e-01 -1.105108e-03 0.0
1.251469e-01 -1.389076e-03 0.0
1.254677e-01 -1.374656e-03 0.0
1.209908e-01 -1.428752e-03 0.0
1.213101e-01 -1.436451e-03 0.0
1.168262e-01 -1.176552e-03 0.0
1.171480e-01 -1.204398e-03 0.0
1.122826e-01 -7.316515e-04 0.0
1.126096e-01 -7.632603e-04 0.0
1.080015e-01 -4.154632e-04 0.0
1.083324e-01 -4.311332e-04 0.0
1.036928e-01 -3.854812e-04 0.0
1.040242e-01 -3.760273e-04 0.0
9.907751e-02 -6.882294e-04 0.0
9.940520e-02 -6.584557e-04 0.0
9.485367e-02 -1.099999e-03 0.0
9.517617e-02 -1.069903e-03 0.0
9.069023e-02 -1.377993e-03 0.0
9.100904e-02 -1.366378e-03 0.0
8.622938e-02 -1.331414e-03 0.0
8.654864e-02 -1.347368e-03 0.0
8.172864e-02 -9.668164e-04 0.0
8.205246e-02 -9.984768e-04 0.0
7.748347e-02 -5.738889e-04 0.0
7.781218e-02 -5.998523e-04 0.0
7.285825e-02 -3.698044e-04 0.0
7.318943e-02 -3.728854e-04 0.0
6.823121e-02 -5.159717e-04 0.0
6.856047e-02 -4.951291e-04 0.0
6.398134e-02 -8.639555e-04 0.0
6.430601e-02 -8.349935e-04 0.0
5.947378e-02 -1.197133e-03 0.0
5.979375e-02 -1.181031e-03 0.0
5.500682e-02 -1.231452e-03 0.0
5.532587e-02 -1.241462e-03 0.0
5.051715e-02 -9.249383e-04 0.0
5.083984e-02 -9.546260e-04 0.0
4.595877e-02 -4.926233e-04 0.0
4.628683e-02 -5.208796e-04 0.0
4.100647e-02 -2.340726e-04 0.0
4.133776e-02 -2.393174e-04 0.0
3.637462e-02 -3.573571e-04 0.0
3.670440e-02 -3.373743e-04 0.0
3.179204e-02 -7.418869e-04 0.0
3.211693e-02 -7.112282e-04 0.0
2.728242e-02 -1.106876e-03 0.0
2.760244e-02 -1.088111e-03 0.0
2.249810e-02 -1.169724e-03 0.0
2.281699e-02 -1.179126e-03 0.0
1.801028e-02 -8.691482e-04 0.0
1.833285e-02 -8.985571e-04 0.0
1.312510e-02 -4.113804e-04 0.0
1.345341e-02 -4.386665e-04 0.0
8.170785e-03 -1.752370e-04 0.0
8.502089e-03 -1.787163e-04 0.0
3.211309e-03 -3.439019e-04 0.0
3.540585e-03 -3.212437e-04 0.0
-1.361936e-03 -7.456110e-04 0.0
-1.037782e-03 -7.151487e-04 0.0
-6.181846e-03 -1.098960e-03 0.0
-5.862506e-03 -1.084988e-03 0.0
-1.128377e-02 -1.061507e-03 0.0
-1.096429e-02 -1.078118e-03 0.0
-1.611194e-02 -6.607295e-04 0.0
-1.578751e-02 -6.926349e-04 0.0
-2.102341e-02 -2.349030e-04 0.0
-2.069369e-02 -2.563625e-04 0.0
-2.631773e-02 -1.278424e-04 0.0
-2.598671e-02 -1.204973e-04 0.0
-3.125758e-02 -4.242380e-04 0.0
-3.093036e-02 -3.963773e-04 0.0
-3.644104e-02 -8.737190e-04 0.0
-3.611983e-02 -8.501710e-04 0.0
-4.155161e-02 -1.032651e-03 0.0
-4.123287e-02 -1.036706e-03 0.0
-4.667433e-02 -7.337336e-04 0.0
-4.635209e-02 -7.625253e-04 0.0
-5.188194e-02 -2.441522e-04 0.0
-5.155368e-02 -2.715986e-04 0.0
-5.716610e-02 -2.031171e-06 0.0
-5.683488e-02 -3.985765e-06 0.0
-6.277815e-02 -2.373085e-04 0.0
-6.244994e-02 -2.119202e-04 0.0
-6.797860e-02 -6.937442e-04 0.0
-6.765646e-02 -6.672248e-04 0.0
-7.341413e-02 -9.274856e-04 0.0
-7.309559e-02 -9.281439e-04 0.0
-7.884902e-02 -6.362280e-04 0.0
-7.852728e-02 -6.652887e-04 0.0
-8.437763e-02 -9.407466e-05 0.0
-8.404936e-02 -1.230064e-04 0.0
-9.032612e-02 1.702938e-04 0.0
-8.999477e-02 1.710447e-04 0.0
-9.593436e-02 -1.028263e-04 0.0
-9.560663e-02 -7.618682e-05 0.0
-1.017690e-01 -5.987246e-04 0.0
-1.014479e-01 -5.763389e-04 0.0
-1.078396e-01 -7.101705e-04 0.0
-1.075202e-01 -7.208399e-04 0.0
-1.136349e-01 -2.917771e-04 0.0
-1.133100e-01 -3.213054e-04 0.0
-1.198778e-01 1.395399e-04 0.0
-1.195467e-01 1.288017e-04 0.0
-1.225310e-01 1.557458e-04 0.0
-1.221992e-01 1.607403e-04 0.0
-1.228629e-01 1.487219e-04 0.0
-1.231946e-01 1.396775e-04 0.0
-1.235263e-01 1.286304e-04 0.0
-1.238580e-01 1.156056e-04 0.0
-1.245208e-01 8.375535e-05 0.0
-1.248520e-01 6.501430e-05 0.0
-1.251830e-01 4.446455e-05 0.0
-1.255138e-01 2.216547e-05 0.0
-1.258444e-01 -1.817388e-06 0.0
-1.261748e-01 -2.741288e-05 0.0
-1.271642e-01 -1.130712e-04 0.0
-1.268347e-01 -8.312609e-05 0.0
-1.274934e-01 -1.442847e-04 0.0
-1.278223e-01 -1.766700e-04 0.0
-1.281508e-01 -2.101244e-04 0.0
-1.284790e-01 -2.445412e-04 0.0
-1.291342e-01 -3.158149e-04 0.0
-1.294613e-01 -3.524420e-04 0.0
-1.297879e-01 -3.895727e-04 0.0
-1.301142e-01 -4.270861e-04 0.0
-1.304401e-01 -4.648602e-04 0.0
-1.307656e-01 -5.027732e-04 0.0
-1.310907e-01 -5.407025e-04 0.0
-1.320636e-01 -6.533534e-04 0.0
-1.317397e-01 -6.161149e-04 0.0
-1.323871e-01 -6.901198e-04 0.0
-1.327102e-01 -7.262965e-04 0.0
-1.330330e-01 -7.617680e-04 0.0
-1.333554e-01 -7.964216e-04 0.0
-1.336775e-01 -8.301482e-04 0.0
-1.339992e-01 -8.628419e-04 0.0
-1.346418e-01 -9.247327e-04 0.0
-1.349626e-01 -9.537448e-04 0.0
-1.352832e-01 -9.813525e-04 0.0
-1.356035e-01 -1.007474e-03 0.0
-1.359236e-01 -1.032037e-03 0.0
-1.362435e-01 -1.054976e-03 0.0
-1.365632e-01 -1.076232e-03 0.0
-1.368828e-01 -1.095752e-03 0.0
-1.372022e-01 -1.113488e-03 0.0
-1.378407e-01 -1.143472e-03 0.0
-1.381599e-01 -1.155670e-03 0.0
-1.384790e-01 -1.165983e-03 0.0
-1.387981e-01 -1.174405e-03 0.0
-1.391173e-01 -1.180937e-03 0.0
-1.394364e-01 -1.185590e-03 0.0
-1.397557e-01 -1.188382e-03 0.0
-1.400750e-01 -1.189339e-03 0.0
-1.403945e-01 -1.188495e-03 0.0
-1.410338e-01 -1.181572e-03 0.0
-1.413537e-01 -1.175600e-03 0.0
-1.416739e-01 -1.168037e-03 0.0
-1.419943e-01 -1.158950e-03 0.0
-1.423149e-01 -1.148416e-03 0.0
-1.426358e-01 -1.136515e-03 0.0
-1.429569e-01 -1.123338e-03 0.0
-1.432784e-01 -1.108976e-03 0.0
-1.436002e-01 -1.093526e-03 0.0
-1.439223e-01 -1.077090e-03 0.0
-1.442448e-01 -1.059773e-03 0.0
-1.445676e-01 -1.041686e-03 0.0
-1.455382e-01 -9.839391e-04 0.0
-1.452143e-01 -1.003654e-03 0.0
-1.458625e-01 -9.639155e-04 0.0
-1.461872e-01 -9.437029e-04 0.0
-1.465122e-01 -9.234211e-04 0.0
-1.468376e-01 -9.031899e-04 0.0
-1.471635e-01 -8.831277e-04 0.0
-1.474897e-01 -8.633537e-04 0.0
-1.478162e-01 -8.439858e-04 0.0
-1.481431e-01 -8.251397e-04 0.0
-1.484704e-01 -8.069285e-04 0.0
-1.487981e-01 -7.894627e-04 0.0
-1.491261e-01 -7.728491e-04 0.0
-1.494544e-01 -7.571920e-04 0.0
-1.497830e-01 -7.425918e-04 0.0
-1.507706e-01 -7.060677e-04 0.0
-1.504411e-01 -7.169416e-04 0.0
-1.511003e-01 -6.966047e-04 0.0
-1.514303e-01 -6.886291e-04 0.0
-1.517604e-01 -6.822121e-04 0.0
-1.520908e-01 -6.774165e-04 0.0
-1.524214e-01 -6.742983e-04 0.0
-1.527521e-01 -6.729082e-04 0.0
-1.530829e-01 -6.732926e-04 0.0
-1.534138e-01 -6.754893e-04 0.0
-1.537448e-01 -6.795288e-04 0.0
-1.540759e-01 -6.854343e-04 0.0
-1.544071e-01 -6.932223e-04 0.0
-1.547382e-01 -7.029023e-04 0.0
-1.550693e-01 -7.144773e-04 0.0
-1.554005e-01 -7.279433e-04 0.0
-1.557315e-01 -7.432879e-04 0.0
-1.560625e-01 -7.604912e-04 0.0
-1.563934e-01 -7.795272e-04 0.0
-1.567241e-01 -8.003640e-04 0.0
-1.570548e-01 -8.229616e-04 0.0
-1.573852e-01 -8.472743e-04 0.0
-1.577155e-01 -8.732483e-04 0.0
-1.580456e-01 -9.008242e-04 0.0
-1.583754e-01 -9.299374e-04 0.0
-1.587050e-01 -9.605179e-04 0.0
-1.590343e-01 -9.924907e-04 0.0
-1.593634e-01 -1.025772e-03 0.0
-1.596921e-01 -1.060275e-03 0.0
-1.600205e-01 -1.095905e-03 0.0
-1.603486e-01 -1.132560e-03 0.0
-1.606763e-01 -1.170124e-03 0.0
-1.610035e-01 -1.208463e-03 0.0
-1.613303e-01 -1.247420e-03 0.0
-1.616566e-01 -1.286821e-03 0.0
-1.619825e-01 -1.326477e-03 0.0
-1.623079e-01 -1.366139e-03 0.0
-1.629580e-01 -1.444929e-03 0.0
-1.626330e-01 -1.405636e-03 0.0
-1.501119e-01 -7.291447e-04 0.0
-1.448907e-01 -1.022942e-03 0.0
-1.407141e-01 -1.185889e-03 0.0
-1.375215e-01 -1.129405e-03 0.0
-1.343207e-01 -8.944017e-04 0.0
-1.314154e-01 -5.785242e-04 0.0
-1.288068e-01 -2.798093e-04 0.0
-1.265049e-01 -5.454359e-05 0.0
-1.241894e-01 1.006345e-04 0.0
-1.218674e-01 1.637013e-04 0.0
-1.215356e-01 1.646337e-04 0.0
-1.212038e-01 1.635499e-04 0.0
-1.208721e-01 1.604695e-04 0.0
-1.205406e-01 1.554180e-04 0.0
-1.202091e-01 1.484282e-04 0.0
-1.192157e-01 1.162670e-04 0.0
-1.188850e-01 1.019965e-04 0.0
-1.185544e-01 8.605656e-05 0.0
-1.182242e-01 6.852032e-05 0.0
-1.178942e-01 4.946714e-05 0.0
-1.175645e-01 2.898135e-05 0.0
-1.172351e-01 7.151864e-06 0.0
-1.169060e-01 -1.592708e-05 0.0
-1.165772e-01 -4.015577e-05 0.0
-1.162488e-01 -6.542999e-05 0.0
-1.159207e-01 -9.164253e-05 0.0
-1.155930e-01 -1.186834e-04 0.0
-1.152657e-01 -1.464389e-04 0.0
-1.149388e-01 -1.747919e-04 0.0
-1.146122e-01 -2.036234e-04 0.0
-1.142861e-01 -2.328129e-04 0.0
-1.139603e-01 -2.622386e-04 0.0
-1.129854e-01 -3.507001e-04 0.0
-1.126613e-01 -3.798390e-04 0.0
-1.123375e-01 -4.086004e-04 0.0
-1.120141e-01 -4.368643e-04 0.0
-1.116911e-01 -4.645132e-04 0.0
-1.113684e-01 -4.914321e-04 0.0
-1.110461e-01 -5.175081e-04 0.0
-1.107242e-01 -5.426317e-04 0.0
-1.104026e-01 -5.666973e-04 0.0
-1.100813e-01 -5.896047e-04 0.0
-1.097603e-01 -6.112583e-04 0.0
-1.094396e-01 -6.315672e-04 0.0
-1.091192e-01 -6.504460e-04 0.0
-1.087990e-01 -6.678155e-04 0.0
-1.084790e-01 -6.836026e-04 0.0
-1.081592e-01 -6.977406e-04 0.0
-1.072009e-01 -7.297044e-04 0.0
-1.068817e-01 -7.367263e-04 0.0
-1.065626e-01 -7.418759e-04 0.0
-1.062436e-01 -7.451318e-04 0.0
-1.059245e-01 -7.464806e-04 0.0
-1.056055e-01 -7.459160e-04 0.0
-1.052865e-01 -7.434404e-04 0.0
-1.049675e-01 -7.390652e-04 0.0
-1.046483e-01 -7.328097e-04 0.0
-1.043291e-01 -7.247000e-04 0.0
-1.040097e-01 -7.147694e-04 0.0
-1.036902e-01 -7.030597e-04 0.0
-1.033706e-01 -6.896211e-04 0.0
-1.030507e-01 -6.745109e-04 0.0
-1.027307e-01 -6.577927e-04 0.0
-1.024104e-01 -6.395367e-04 0.0
-1.020898e-01 -6.198200e-04 0.0
-1.011265e-01 -5.527563e-04 0.0
-1.008047e-01 -5.280761e-04 0.0
-1.004827e-01 -5.024016e-04 0.0
-1.001603e-01 -4.758396e-04 0.0
-9.983749e-02 -4.485005e-04 0.0
-9.951434e-02 -4.204981e-04 0.0
-9.919083e-02 -3.919489e-04 0.0
-9.886692e-02 -3.629712e-04 0.0
-9.854264e-02 -3.336848e-04 0.0
-9.821796e-02 -3.042104e-04 0.0
-9.789289e-02 -2.746700e-04 0.0
-9.756743e-02 -2.451857e-04 0.0
-9.724158e-02 -2.158796e-04 0.0
-9.691534e-02 -1.868727e-04 0.0
-9.658872e-02 -1.582840e-04 0.0
-9.626173e-02 -1.302300e-04 0.0
-9.527856e-02 -5.042177e-05 0.0
-9.495015e-02 -2.563694e-05 0.0
-9.462141e-02 -1.934192e-06 0.0
-9.429236e-02 2.058829e-05 0.0
-9.396302e-02 4.183675e-05 0.0
-9.363340e-02 6.172286e-05 0.0
-9.330351e-02 8.016368e-05 0.0
-9.297339e-02 9.708128e-05 0.0
-9.264304e-02 1.124034e-04 0.0
-9.231248e-02 1.260641e-04 0.0
-9.198175e-02 1.380044e-04 0.0
-9.165085e-02 1.481719e-04 0.0
-9.131982e-02 1.565204e-04 0.0
-9.098867e-02 1.630104e-04 0.0
-9.065743e-02 1.676100e-04 0.0
-8.966339e-02 1.698514e-04 0.0
-8.933202e-02 1.667112e-04 0.0
-8.900068e-02 1.616286e-04 0.0
-8.866939e-02 1.546154e-04 0.0
-8.833817e-02 1.456903e-04 0.0
-8.800706e-02 1.348792e-04 0.0
-8.767606e-02 1.222157e-04 0.0
-8.734522e-02 1.077410e-04 0.0
-8.701454e-02 9.150294e-05 0.0
-8.668405e-02 7.355538e-05 0.0
-8.635377e-02 5.395832e-05 0.0
-8.602373e-02 3.277887e-05 0.0
-8.569393e-02 1.009101e-05 0.0
-8.536441e-02 -1.402551e-05 0.0
-8.503517e-02 -3.948601e-05 0.0
-8.470624e-02 -6.620078e-05 0.0
-8.372143e-02 -1.528917e-04 0.0
-8.339387e-02 -1.836223e-04 0.0
-8.306668e-02 -2.150864e-04 0.0
-8.273986e-02 -2.471692e-04 0.0
-8.241344e-02 -2.797532e-04 0.0
-8.208740e-02 -3.127182e-04 0.0
-8.176177e-02 -3.459422e-04 0.0
-8.143654e-02 -3.793016e-04 0.0
-8.111171e-02 -4.126725e-04 0.0
-8.078729e-02 -4.459308e-04 0.0
-8.046327e-02 -4.789526e-04 0.0
-8.013964e-02 -5.116141e-04 0.0
-7.981641e-02 -5.437921e-04 0.0
-7.949357e-02 -5.753656e-04 0.0
-7.917111e-02 -6.062163e-04 0.0
-7.820590e-02 -6.932884e-04 0.0
-7.788484e-02 -7.201217e-04 0.0
-7.756410e-02 -7.456876e-04 0.0
-7.724366e-02 -7.698903e-04 0.0
-7.692350e-02 -7.926394e-04 0.0
-7.660361e-02 -8.138507e-04 0.0
-7.628395e-02 -8.334455e-04 0.0
-7.596452e-02 -8.513507e-04 0.0
-7.564528e-02 -8.675007e-04 0.0
-7.532622e-02 -8.818380e-04 0.0
-7.500730e-02 -8.943129e-04 0.0
-7.468852e-02 -9.048816e-04 0.0
-7.436984e-02 -9.135069e-04 0.0
-7.405123e-02 -9.201605e-04 0.0
-7.373267e-02 -9.248236e-04 0.0
-7.277702e-02 -9.268025e-04 0.0
-7.245839e-02 -9.234739e-04 0.0
-7.213969e-02 -9.181791e-04 0.0
-7.182088e-02 -9.109474e-04 0.0
-7.150193e-02 -9.018160e-04 0.0
-7.118283e-02 -8.908302e-04 0.0
-7.086356e-02 -8.780420e-04 0.0
-7.054408e-02 -8.635100e-04 0.0
-7.022438e-02 -8.472999e-04 0.0
-6.990443e-02 -8.294852e-04 0.0
-6.958422e-02 -8.101460e-04 0.0
-6.926372e-02 -7.893679e-04 0.0
-6.894293e-02 -7.672408e-04 0.0
-6.862182e-02 -7.438597e-04 0.0
-6.830038e-02 -7.193256e-04 0.0
-6.733395e-02 -6.398796e-04 0.0
-6.701106e-02 -6.118236e-04 0.0
-6.668780e-02 -5.831745e-04 0.0
-6.636414e-02 -5.540523e-04 0.0
-6.604009e-02 -5.245791e-04 0.0
-6.571565e-02 -4.948777e-04 0.0
-6.539081e-02 -4.650708e-04 0.0
-6.506557e-02 -4.352800e-04 0.0
-6.473994e-02 -4.056269e-04 0.0
-6.441391e-02 -3.762336e-04 0.0
-6.408750e-02 -3.472214e-04 0.0
-6.376071e-02 -3.187090e-04 0.0
-6.343355e-02 -2.908115e-04 0.0
-6.310603e-02 -2.636413e-04 0.0
-6.212139e-02 -1.875791e-04 0.0
-6.179254e-02 -1.643832e-04 0.0
-6.146339e-02 -1.424259e-04 0.0
-6.113396e-02 -1.217958e-04 0.0
-6.080427e-02 -1.025759e-04 0.0
-6.047433e-02 -8.484389e-05 0.0
-6.014417e-02 -6.867160e-05 0.0
-5.981380e-02 -5.412552e-05 0.0
-5.948325e-02 -4.126559e-05 0.0
-5.915253e-02 -3.014439e-05 0.0
-5.882168e-02 -2.080743e-05 0.0
-5.849071e-02 -1.329403e-05 0.0
-5.815964e-02 -7.637467e-06 0.0
-5.782850e-02 -3.863956e-06 0.0
-5.749731e-02 -1.991738e-06 0.0
-5.650369e-02 -7.852654e-06 0.0
-5.617254e-02 -1.362189e-05 0.0
-5.584147e-02 -2.127545e-05 0.0
-5.551048e-02 -3.078767e-05 0.0
-5.517962e-02 -4.212627e-05 0.0
-5.484889e-02 -5.525251e-05 0.0
-5.451832e-02 -7.012078e-05 0.0
-5.418793e-02 -8.667835e-05 0.0
-5.385774e-02 -1.048658e-04 0.0
-5.352778e-02 -1.246177e-04 0.0
-5.319806e-02 -1.458630e-04 0.0
-5.286859e-02 -1.685248e-04 0.0
-5.253941e-02 -1.925200e-04 0.0
-5.221052e-02 -2.177603e-04 0.0
-5.122576e-02 -2.999973e-04 0.0
-5.089819e-02 -3.292426e-04 0.0
-5.057098e-02 -3.592249e-04 0.0
-5.024413e-02 -3.898319e-04 0.0
-4.991767e-02 -4.209485e-04 0.0
-4.959158e-02 -4.524573e-04 0.0
-4.926588e-02 -4.842384e-04 0.0
-4.894058e-02 -5.161708e-04 0.0
-4.861566e-02 -5.481331e-04 0.0
-4.829114e-02 -5.800035e-04 0.0
-4.796701e-02 -6.116602e-04 0.0
-4.764327e-02 -6.429816e-04 0.0
-4.731991e-02 -6.738467e-04 0.0
-4.699694e-02 -7.041362e-04 0.0
-4.603020e-02 -7.903997e-04 0.0
-4.570865e-02 -8.172480e-04 0.0
-4.538742e-02 -8.429656e-04 0.0
-4.506651e-02 -8.674526e-04 0.0
-4.474589e-02 -8.906148e-04 0.0
-4.442555e-02 -9.123626e-04 0.0
-4.410547e-02 -9.326115e-04 0.0
-4.378563e-02 -9.512833e-04 0.0
-4.346601e-02 -9.683058e-04 0.0
-4.314659e-02 -9.836137e-04 0.0
-4.282734e-02 -9.971485e-04 0.0
-4.250824e-02 -1.008859e-03 0.0
-4.218927e-02 -1.018703e-03 0.0
-4.187040e-02 -1.026643e-03 0.0
-4.091416e-02 -1.038795e-03 0.0
-4.059545e-02 -1.038915e-03 0.0
-4.027672e-02 -1.037071e-03 0.0
-3.995793e-02 -1.033273e-03 0.0
-3.963907e-02 -1.027541e-03 0.0
-3.932011e-02 -1.019904e-03 0.0
-3.900102e-02 -1.010396e-03 0.0
-3.868178e-02 -9.990613e-04 0.0
-3.836237e-02 -9.859510e-04 0.0
-3.804276e-02 -9.711231e-04 0.0
-3.772293e-02 -9.546426e-04 0.0
-3.740286e-02 -9.365809e-04 0.0
-3.708254e-02 -9.170160e-04 0.0
-3.676194e-02 -8.960322e-04 0.0
-3.579829e-02 -8.254877e-04 0.0
-3.547641e-02 -7.997741e-04 0.0
-3.515418e-02 -7.731388e-04 0.0
-3.483159e-02 -7.456933e-04 0.0
-3.450862e-02 -7.175516e-04 0.0
-3.418528e-02 -6.888306e-04 0.0
-3.386155e-02 -6.596498e-04 0.0
-3.353743e-02 -6.301301e-04 0.0
-3.321291e-02 -6.003928e-04 0.0
-3.288800e-02 -5.705605e-04 0.0
-3.256269e-02 -5.407560e-04 0.0
-3.223700e-02 -5.111013e-04 0.0
-3.191091e-02 -4.817173e-04 0.0
-3.158444e-02 -4.527234e-04 0.0
-3.060278e-02 -3.692544e-04 0.0
-3.027484e-02 -3.429786e-04 0.0
-2.994657e-02 -3.176558e-04 0.0
-2.961797e-02 -2.933887e-04 0.0
-2.928906e-02 -2.702758e-04 0.0
-2.895986e-02 -2.484108e-04 0.0
-2.863037e-02 -2.278820e-04 0.0
-2.830062e-02 -2.087718e-04 0.0
-2.797063e-02 -1.911582e-04 0.0
-2.764041e-02 -1.751137e-04 0.0
-2.731000e-02 -1.607045e-04 0.0
-2.697939e-02 -1.479893e-04 0.0
-2.664863e-02 -1.370197e-04 0.0
-2.565560e-02 -1.150174e-04 0.0
-2.532441e-02 -1.114266e-04 0.0
-2.499319e-02 -1.097421e-04 0.0
-2.466194e-02 -1.099748e-04 0.0
-2.433068e-02 -1.121289e-04 0.0
-2.399946e-02 -1.162005e-04 0.0
-2.366828e-02 -1.221777e-04 0.0
-2.333718e-02 -1.300418e-04 0.0
-2.300617e-02 -1.397673e-04 0.0
-2.267529e-02 -1.513220e-04 0.0
-2.234454e-02 -1.646660e-04 0.0
-2.201396e-02 -1.797528e-04 0.0
-2.168356e-02 -1.965288e-04 0.0
-2.135337e-02 -2.149342e-04 0.0
-2.036424e-02 -2.792347e-04 0.0
-2.003507e-02 -3.034355e-04 0.0
-1.970620e-02 -3.288758e-04 0.0
-1.937764e-02 -3.554615e-04 0.0
-1.904941e-02 -3.830936e-04 0.0
-1.872153e-02 -4.116685e-04 0.0
-1.839400e-02 -4.410794e-04 0.0
-1.806684e-02 -4.712163e-04 0.0
-1.774005e-02 -5.019655e-04 0.0
-1.741364e-02 -5.332098e-04 0.0
-1.708762e-02 -5.648292e-04 0.0
-1.676200e-02 -5.967031e-04 0.0
-1.643677e-02 -6.287107e-04 0.0
-1.546348e-02 -7.243029e-04 0.0
-1.513984e-02 -7.556110e-04 0.0
-1.481660e-02 -7.864383e-04 0.0
-1.449373e-02 -8.166648e-04 0.0
-1.417125e-02 -8.461717e-04 0.0
-1.384913e-02 -8.748430e-04 0.0
-1.352736e-02 -9.025666e-04 0.0
-1.320594e-02 -9.292337e-04 0.0
-1.288485e-02 -9.547396e-04 0.0
-1.256408e-02 -9.789834e-04 0.0
-1.224360e-02 -1.001870e-03 0.0
-1.192340e-02 -1.023308e-03 0.0
-1.160347e-02 -1.043213e-03 0.0
-1.064501e-02 -1.092981e-03 0.0
-1.032590e-02 -1.106036e-03 0.0
-1.000695e-02 -1.117234e-03 0.0
-9.688115e-03 -1.126531e-03 0.0
-9.369383e-03 -1.133893e-03 0.0
-9.050725e-03 -1.139290e-03 0.0
-8.732115e-03 -1.142703e-03 0.0
-8.413527e-03 -1.144122e-03 0.0
-8.094935e-03 -1.143543e-03 0.0
-7.776313e-03 -1.140971e-03 0.0
-7.457635e-03 -1.136420e-03 0.0
-7.138874e-03 -1.129910e-03 0.0
-6.820006e-03 -1.121470e-03 0.0
-6.501005e-03 -1.111139e-03 0.0
-5.542962e-03 -1.069281e-03 0.0
-5.223193e-03 -1.051907e-03 0.0
-4.903177e-03 -1.032938e-03 0.0
-4.582895e-03 -1.012452e-03 0.0
-4.262326e-03 -9.905375e-04 0.0
-3.941455e-03 -9.672865e-04 0.0
-3.620265e-03 -9.427952e-04 0.0
-3.298742e-03 -9.171639e-04 0.0
-2.976871e-03 -8.904980e-04 0.0
-2.654640e-03 -8.629080e-04 0.0
-2.332039e-03 -8.345076e-04 0.0
-2.009059e-03 -8.054123e-04 0.0
-1.685694e-03 -7.757398e-04 0.0
-7.132302e-04 -6.844760e-04 0.0
-3.882790e-04 -6.537155e-04 0.0
-6.292885e-05 -6.229902e-04 0.0
2.628183e-04 -5.924234e-04 0.0
5.889585e-04 -5.621376e-04 0.0
9.154863e-04 -5.322532e-04 0.0
1.242395e-03 -5.028886e-04 0.0
1.569677e-03 -4.741596e-04 0.0
1.897324e-03 -4.461798e-04 0.0
2.225323e-03 -4.190598e-04 0.0
2.553663e-03 -3.929059e-04 0.0
2.882330e-03 -3.678204e-04 0.0
3.870141e-03 -2.999350e-04 0.0
4.199959e-03 -2.800583e-04 0.0
4.530021e-03 -2.616916e-04 0.0
4.860308e-03 -2.449064e-04 0.0
5.190799e-03 -2.297684e-04 0.0
5.521473e-03 -2.163369e-04 0.0
5.852309e-03 -2.046651e-04 0.0
6.183285e-03 -1.947995e-04 0.0
6.514378e-03 -1.867793e-04 0.0
6.845565e-03 -1.806363e-04 0.0
7.176823e-03 -1.763957e-04 0.0
7.508129e-03 -1.740762e-04 0.0
7.839458e-03 -1.736888e-04 0.0
8.833345e-03 -1.841162e-04 0.0
9.164529e-03 -1.914191e-04 0.0
9.495619e-03 -2.005999e-04 0.0
9.826591e-03 -2.116260e-04 0.0
1.015742e-02 -2.244574e-04 0.0
1.048809e-02 -2.390474e-04 0.0
1.081857e-02 -2.553425e-04 0.0
1.114885e-02 -2.732832e-04 0.0
1.147890e-02 -2.928039e-04 0.0
1.180870e-02 -3.138331e-04 0.0
1.213824e-02 -3.362925e-04 0.0
1.246750e-02 -3.600975e-04 0.0
1.279646e-02 -3.851581e-04 0.0
1.378138e-02 -4.669136e-04 0.0
1.410900e-02 -4.960141e-04 0.0
1.443625e-02 -5.258566e-04 0.0
1.476313e-02 -5.563269e-04 0.0
1.508962e-02 -5.873084e-04 0.0
1.541572e-02 -6.186823e-04 0.0
1.574143e-02 -6.503280e-04 0.0
1.606674e-02 -6.821238e-04 0.0
1.639166e-02 -7.139469e-04 0.0
1.671617e-02 -7.456732e-04 0.0
1.704028e-02 -7.771783e-04 0.0
1.736400e-02 -8.083395e-04 0.0
1.768733e-02 -8.390361e-04 0.0
1.865505e-02 -9.271460e-04 0.0
1.897689e-02 -9.548027e-04 0.0
1.929839e-02 -9.814186e-04 0.0
1.961956e-02 -1.006889e-03 0.0
1.994041e-02 -1.031113e-03 0.0
2.026096e-02 -1.053995e-03 0.0
2.058123e-02 -1.075443e-03 0.0