# vtk DataFile Version 2.0
Simplicial Mesh Example
ASCII
DATASET UNSTRUCTURED_GRID
POINTS 1001 double
4.900000e+04 5.000000e+02 0.0
4.910000e+04 5.000000e+02 0.0
4.770000e+04 5.000000e+02 0.0
4.780000e+04 5.000000e+02 0.0
4.640000e+04 5.000000e+02 0.0
4.650000e+04 5.000000e+02 0.0
4.510000e+04 5.000000e+02 0.0
4.520000e+04 5.000000e+02 0.0
4.380000e+04 5.000000e+02 0.0
4.390000e+04 5.000000e+02 0.0
4.250000e+04 5.000000e+02 0.0
4.260000e+04 5.000000e+02 0.0
4.120000e+04 5.000000e+02 0.0
4.130000e+04 5.000000e+02 0.0
3.990000e+04 5.000000e+02 0.0
4.000000e+04 5.000000e+02 0.0
3.860000e+04 5.000000e+02 0.0
3.870000e+04 5.000000e+02 0.0
3.730000e+04 5.000000e+02 0.0
3.740000e+04 5.000000e+02 0.0
3.600000e+04 5.000000e+02 0.0
3.610000e+04 5.000000e+02 0.0
3.460000e+04 5.000000e+02 0.0
3.470000e+04 5.000000e+02 0.0
3.330000e+04 5.000000e+02 0.0
3.340000e+04 5.000000e+02 0.0
3.200000e+04 5.000000e+02 0.0
3.210000e+04 5.000000e+02 0.0
3.060000e+04 5.000000e+02 0.0
3.070000e+04 5.000000e+02 0.0
2.930000e+04 5.000000e+02 0.0
2.940000e+04 5.000000e+02 0.0
2.800000e+04 5.000000e+02 0.0
2.810000e+04 5.000000e+02 0.0
2.660000e+04 5.000000e+02 0.0
2.670000e+04 5.000000e+02 0.0
2.520000e+04 5.000000e+02 0.0
2.530000e+04 5.000000e+02 0.0
2.390000e+04 5.000000e+02 0.0
2.400000e+04 5.000000e+02 0.0
2.250000e+04 5.000000e+02 0.0
2.260000e+04 5.000000e+02 0.0
2.110000e+04 5.000000e+02 0.0
2.120000e+04 5.000000e+02 0.0
1.980000e+04 5.000000e+02 0.0
1.990000e+04 5.000000e+02 0.0
1.840000e+04 5.000000e+02 0.0
1.850000e+04 5.000000e+02 0.0
1.700000e+04 5.000000e+02 0.0
1.710000e+04 5.000000e+02 0.0
1.560000e+04 5.000000e+02 0.0
1.570000e+04 5.000000e+02 0.0
1.420000e+04 5.000000e+02 0.0
1.430000e+04 5.000000e+02 0.0
1.270000e+04 5.000000e+02 0.0
1.280000e+04 5.000000e+02 0.0
1.130000e+04 5.000000e+02 0.0
1.140000e+04 5.000000e+02 0.0
9.900000e+03 5.000000e+02 0.0
1.000000e+04 5.000000e+02 0.0
8.500000e+03 5.000000e+02 0.0
8.600000e+03 5.000000e+02 0.0
7.000000e+03 5.000000e+02 0.0
7.100000e+03 5.000000e+02 0.0
5.600000e+03 5.000000e+02 0.0
5.700000e+03 5.000000e+02 0.0
4.100000e+03 5.000000e+02 0.0
4.200000e+03 5.000000e+02 0.0
2.600000e+03 5.000000e+02 0.0
2.700000e+03 5.000000e+02 0.0
1.100000e+03 5.000000e+02 0.0
1.200000e+03 5.000000e+02 0.0
-3.000000e+02 5.000000e+02 0.0
-2.000000e+02 5.000000e+02 0.0
-1.800000e+03 5.000000e+02 0.0
-1.700000e+03 5.000000e+02 0.0
-3.400000e+03 5.000000e+02 0.0
-3.300000e+03 5.000000e+02 0.0
-4.900000e+03 5.000000e+02 0.0
-4.800000e+03 5.000000e+02 0.0
-6.400000e+03 5.000000e+02 0.0
-6.300000e+03 5.000000e+02 0.0
-8.000000e+03 5.000000e+02 0.0
-7.900000e+03 5.000000e+02 0.0
-9.500000e+03 5.000000e+02 0.0
-9.400000e+03 5.000000e+02 0.0
-1.110000e+04 5.000000e+02 0.0
-1.100000e+04 5.000000e+02 0.0
-1.270000e+04 5.000000e+02 0.0
-1.260000e+04 5.000000e+02 0.0
-1.430000e+04 5.000000e+02 0.0
-1.420000e+04 5.000000e+02 0.0
-1.590000e+04 5.000000e+02 0.0
-1.580000e+04 5.000000e+02 0.0
-1.750000e+04 5.000000e+02 0.0
-1.740000e+04 5.000000e+02 0.0
-1.920000e+04 5.000000e+02 0.0
-1.910000e+04 5.000000e+02 0.0
-2.080000e+04 5.000000e+02 0.0
-2.070000e+04 5.000000e+02 0.0
-2.250000e+04 5.000000e+02 0.0
-2.240000e+04 5.000000e+02 0.0
-2.420000e+04 5.000000e+02 0.0
-2.410000e+04 5.000000e+02 0.0
-2.590000e+04 5.000000e+02 0.0
-2.580000e+04 5.000000e+02 0.0
-2.770000e+04 5.000000e+02 0.0
-2.760000e+04 5.000000e+02 0.0
-2.940000e+04 5.000000e+02 0.0
-2.930000e+04 5.000000e+02 0.0
-3.120000e+04 5.000000e+02 0.0
-3.110000e+04 5.000000e+02 0.0
-3.310000e+04 5.000000e+02 0.0
-3.300000e+04 5.000000e+02 0.0
-3.490000e+04 5.000000e+02 0.0
-3.480000e+04 5.000000e+02 0.0
-3.680000e+04 5.000000e+02 0.0
-3.670000e+04 5.000000e+02 0.0
-3.760000e+04 5.000000e+02 0.0
-3.750000e+04 5.000000e+02 0.0
-3.770000e+04 5.000000e+02 0.0
-3.780000e+04 5.000000e+02 0.0
-3.790000e+04 5.000000e+02 0.0
-3.800000e+04 5.000000e+02 0.0
-3.820000e+04 5.000000e+02 0.0
-3.830000e+04 5.000000e+02 0.0
-3.840000e+04 5.000000e+02 0.0
-3.850000e+04 5.000000e+02 0.0
-3.860000e+04 5.000000e+02 0.0
-3.870000e+04 5.000000e+02 0.0
-3.900000e+04 5.000000e+02 0.0
-3.890000e+04 5.000000e+02 0.0
-3.910000e+04 5.000000e+02 0.0
-3.920000e+04 5.000000e+02 0.0
-3.930000e+04 5.000000e+02 0.0
-3.940000e+04 5.000000e+02 0.0
-3.960000e+04 5.000000e+02 0.0
-3.970000e+04 5.000000e+02 0.0
-3.980000e+04 5.000000e+02 0.0
-3.990000e+04 5.000000e+02 0.0
-4.000000e+04 5.000000e+02 0.0
-4.010000e+04 5.000000e+02 0.0
-4.020000e+04 5.000000e+02 0.0
-4.050000e+04 5.000000e+02 0.0
-4.040000e+04 5.000000e+02 0.0
-4.060000e+04 5.000000e+02 0.0
-4.070000e+04 5.000000e+02 0.0
-4.080000e+04 5.000000e+02 0.0
-4.090000e+04 5.000000e+02 0.0
-4.100000e+04 5.000000e+02 0.0
-4.110000e+04 5.000000e+02 0.0
-4.130000e+04 5.000000e+02 0.0
-4.140000e+04 5.000000e+02 0.0
-4.150000e+04 5.000000e+02 0.0
-4.160000e+04 5.000000e+02 0.0
-4.170000e+04 5.000000e+02 0.0
-4.180000e+04 5.000000e+02 0.0
-4.190000e+04 5.000000e+02 0.0
-4.200000e+04 5.000000e+02 0.0
-4.210000e+04 5.000000e+02 0.0
-4.230000e+04 5.000000e+02 0.0
-4.240000e+04 5.000000e+02 0.0
-4.250000e+04 5.000000e+02 0.0
-4.260000e+04 5.000000e+02 0.0
-4.270000e+04 5.000000e+02 0.0
-4.280000e+04 5.000000e+02 0.0
-4.290000e+04 5.000000e+02 0.0
-4.300000e+04 5.000000e+02 0.0
-4.310000e+04 5.000000e+02 0.0
-4.330000e+04 5.000000e+02 0.0
-4.340000e+04 5.000000e+02 0.0
-4.350000e+04 5.000000e+02 0.0
-4.360000e+04 5.000000e+02 0.0
-4.370000e+04 5.000000e+02 0.0
-4.380000e+04 5.000000e+02 0.0
-4.390000e+04 5.000000e+02 0.0
-4.400000e+04 5.000000e+02 0.0
-4.410000e+04 5.000000e+02 0.0
-4.420000e+04 5.000000e+02 0.0
-4.430000e+04 5.000000e+02 0.0
-4.440000e+04 5.000000e+02 0.0
-4.470000e+04 5.000000e+02 0.0
-4.460000e+04 5.000000e+02 0.0
-4.480000e+04 5.000000e+02 0.0
-4.490000e+04 5.000000e+02 0.0
-4.500000e+04 5.000000e+02 0.0
-4.510000e+04 5.000000e+02 0.0
-4.520000e+04 5.000000e+02 0.0
-4.530000e+04 5.000000e+02 0.0
-4.540000e+04 5.000000e+02 0.0
-4.550000e+04 5.000000e+02 0.0
-4.560000e+04 5.000000e+02 0.0
-4.570000e+04 5.000000e+02 0.0
-4.580000e+04 5.000000e+02 0.0
-4.590000e+04 5.000000e+02 0.0
-4.600000e+04 5.000000e+02 0.0
-4.630000e+04 5.000000e+02 0.0
-4.620000e+04 5.000000e+02 0.0
-4.640000e+04 5.000000e+02 0.0
-4.650000e+04 5.000000e+02 0.0
-4.660000e+04 5.000000e+02 0.0
-4.670000e+04 5.000000e+02 0.0
-4.680000e+04 5.000000e+02 0.0
-4.690000e+04 5.000000e+02 0.0
-4.700000e+04 5.000000e+02 0.0
-4.710000e+04 5.000000e+02 0.0
-4.720000e+04 5.000000e+02 0.0
-4.730000e+04 5.000000e+02 0.0
-4.740000e+04 5.000000e+02 0.0
-4.750000e+04 5.000000e+02 0.0
-4.760000e+04 5.000000e+02 0.0
-4.770000e+04 5.000000e+02 0.0
-4.780000e+04 5.000000e+02 0.0
-4.790000e+04 5.000000e+02 0.0
-4.800000e+04 5.000000e+02 0.0
-4.810000e+04 5.000000e+02 0.0
-4.820000e+04 5.000000e+02 0.0
-4.830000e+04 5.000000e+02 0.0
-4.840000e+04 5.000000e+02 0.0
-4.850000e+04 5.000000e+02 0.0
-4.860000e+04 5.000000e+02 0.0
-4.870000e+04 5.000000e+02 0.0
-4.880000e+04 5.000000e+02 0.0
-4.890000e+04 5.000000e+02 0.0
-4.900000e+04 5.000000e+02 0.0
-4.910000e+04 5.000000e+02 0.0
-4.920000e+04 5.000000e+02 0.0
-4.930000e+04 5.000000e+02 0.0
-4.940000e+04 5.000000e+02 0.0
-4.950000e+04 5.000000e+02 0.0
-4.960000e+04 5.000000e+02 0.0
-4.970000e+04 5.000000e+02 0.0
-4.980000e+04 5.000000e+02 0.0
-5.000000e+04 5.000000e+02 0.0
-4.990000e+04 5.000000e+02 0.0
-4.610000e+04 5.000000e+02 0.0
-4.450000e+04 5.000000e+02 0.0
-4.320000e+04 5.000000e+02 0.0
-4.220000e+04 5.000000e+02 0.0
-4.120000e+04 5.000000e+02 0.0
-4.030000e+04 5.000000e+02 0.0
-3.950000e+04 5.000000e+02 0.0
-3.880000e+04 5.000000e+02 0.0
-3.810000e+04 5.000000e+02 0.0
-3.740000e+04 5.000000e+02 0.0
-3.730000e+04 5.000000e+02 0.0
-3.720000e+04 5.000000e+02 0.0
-3.710000e+04 5.000000e+02 0.0
-3.700000e+04 5.000000e+02 0.0
-3.690000e+04 5.000000e+02 0.0
-3.660000e+04 5.000000e+02 0.0
-3.650000e+04 5.000000e+02 0.0
-3.640000e+04 5.000000e+02 0.0
-3.630000e+04 5.000000e+02 0.0
-3.620000e+04 5.000000e+02 0.0
-3.610000e+04 5.000000e+02 0.0
-3.600000e+04 5.000000e+02 0.0
-3.590000e+04 5.000000e+02 0.0
-3.580000e+04 5.000000e+02 0.0
-3.570000e+04 5.000000e+02 0.0
-3.560000e+04 5.000000e+02 0.0
-3.550000e+04 5.000000e+02 0.0
-3.540000e+04 5.000000e+02 0.0
-3.530000e+04 5.000000e+02 0.0
-3.520000e+04 5.000000e+02 0.0
-3.510000e+04 5.000000e+02 0.0
-3.500000e+04 5.000000e+02 0.0
-3.470000e+04 5.000000e+02 0.0
-3.460000e+04 5.000000e+02 0.0
-3.450000e+04 5.000000e+02 0.0
-3.440000e+04 5.000000e+02 0.0
-3.430000e+04 5.000000e+02 0.0
-3.420000e+04 5.000000e+02 0.0
-3.410000e+04 5.000000e+02 0.0
-3.400000e+04 5.000000e+02 0.0
-3.390000e+04 5.000000e+02 0.0
-3.380000e+04 5.000000e+02 0.0
-3.370000e+04 5.000000e+02 0.0
-3.360000e+04 5.000000e+02 0.0
-3.350000e+04 5.000000e+02 0.0
-3.340000e+04 5.000000e+02 0.0
-3.330000e+04 5.000000e+02 0.0
-3.320000e+04 5.000000e+02 0.0
-3.290000e+04 5.000000e+02 0.0
-3.280000e+04 5.000000e+02 0.0
-3.270000e+04 5.000000e+02 0.0
-3.260000e+04 5.000000e+02 0.0
-3.250000e+04 5.000000e+02 0.0
-3.240000e+04 5.000000e+02 0.0
-3.230000e+04 5.000000e+02 0.0
-3.220000e+04 5.000000e+02 0.0
-3.210000e+04 5.000000e+02 0.0
-3.200000e+04 5.000000e+02 0.0
-3.190000e+04 5.000000e+02 0.0
-3.180000e+04 5.000000e+02 0.0
-3.170000e+04 5.000000e+02 0.0
-3.160000e+04 5.000000e+02 0.0
-3.150000e+04 5.000000e+02 0.0
-3.140000e+04 5.000000e+02 0.0
-3.130000e+04 5.000000e+02 0.0
-3.100000e+04 5.000000e+02 0.0
-3.090000e+04 5.000000e+02 0.0
-3.080000e+04 5.000000e+02 0.0
-3.070000e+04 5.000000e+02 0.0
-3.060000e+04 5.000000e+02 0.0
-3.050000e+04 5.000000e+02 0.0
-3.040000e+04 5.000000e+02 0.0
-3.030000e+04 5.000000e+02 0.0
-3.020000e+04 5.000000e+02 0.0
-3.010000e+04 5.000000e+02 0.0
-3.000000e+04 5.000000e+02 0.0
-2.990000e+04 5.000000e+02 0.0
-2.980000e+04 5.000000e+02 0.0
-2.970000e+04 5.000000e+02 0.0
-2.960000e+04 5.000000e+02 0.0
-2.950000e+04 5.000000e+02 0.0
-2.920000e+04 5.000000e+02 0.0
-2.910000e+04 5.000000e+02 0.0
-2.900000e+04 5.000000e+02 0.0
-2.890000e+04 5.000000e+02 0.0
-2.880000e+04 5.000000e+02 0.0
[...]
POINT_DATA 1001
VECTORS displacement double
1.589393e-01 -2.197473e-03 0.0
1.592609e-01 -2.179631e-03 0.0
1.547823e-01 -2.295883e-03 0.0
1.551011e-01 -2.298791e-03 0.0
1.506336e-01 -2.083282e-03 0.0
1.509538e-01 -2.110179e-03 0.0
1.464435e-01 -1.632185e-03 0.0
1.467681e-01 -1.670713e-03 0.0
1.421919e-01 -1.162991e-03 0.0
1.425210e-01 -1.194197e-03 0.0
1.378973e-01 -8.951145e-04 0.0
1.382283e-01 -9.055190e-04 0.0
1.336008e-01 -9.196503e-04 0.0
1.339303e-01 -9.082884e-04 0.0
1.293436e-01 -1.155965e-03 0.0
1.296689e-01 -1.134643e-03 0.0
1.251444e-01 -1.395319e-03 0.0
1.254655e-01 -1.382149e-03 0.0
1.209847e-01 -1.425105e-03 0.0
1.213043e-01 -1.432991e-03 0.0
1.168168e-01 -1.176379e-03 0.0
1.171390e-01 -1.203431e-03 0.0
1.122719e-01 -7.462051e-04 0.0
1.125990e-01 -7.766243e-04 0.0
1.079929e-01 -4.421552e-04 0.0
1.083236e-01 -4.573208e-04 0.0
1.036886e-01 -4.099185e-04 0.0
1.040195e-01 -4.013768e-04 0.0
9.907581e-02 -6.928191e-04 0.0
9.940335e-02 -6.648586e-04 0.0
9.485059e-02 -1.082792e-03 0.0
9.517319e-02 -1.054170e-03 0.0
9.068385e-02 -1.347593e-03 0.0
9.100290e-02 -1.336495e-03 0.0
8.621977e-02 -1.299755e-03 0.0
8.653932e-02 -1.315271e-03 0.0
8.171747e-02 -9.453735e-04 0.0
8.204145e-02 -9.760262e-04 0.0
7.747360e-02 -5.652365e-04 0.0
7.780216e-02 -5.903683e-04 0.0
7.285288e-02 -3.659458e-04 0.0
7.318370e-02 -3.693022e-04 0.0
6.822915e-02 -5.023635e-04 0.0
6.855823e-02 -4.825724e-04 0.0
6.397862e-02 -8.393970e-04 0.0
6.430334e-02 -8.110550e-04 0.0
5.946771e-02 -1.173163e-03 0.0
5.978784e-02 -1.156402e-03 0.0
5.499860e-02 -1.222489e-03 0.0
5.531778e-02 -1.231006e-03 0.0
5.050895e-02 -9.372528e-04 0.0
5.083171e-02 -9.653221e-04 0.0
4.595276e-02 -5.242575e-04 0.0
4.628069e-02 -5.514143e-04 0.0
4.100556e-02 -2.726702e-04 0.0
4.133647e-02 -2.782226e-04 0.0
3.637839e-02 -3.823414e-04 0.0
3.670782e-02 -3.639874e-04 0.0
3.179704e-02 -7.417662e-04 0.0
3.212185e-02 -7.129679e-04 0.0
2.728507e-02 -1.086608e-03 0.0
2.760525e-02 -1.068780e-03 0.0
2.249715e-02 -1.144299e-03 0.0
2.281634e-02 -1.153357e-03 0.0
1.800667e-02 -8.547388e-04 0.0
1.832952e-02 -8.828563e-04 0.0
1.312186e-02 -4.184182e-04 0.0
1.345011e-02 -4.443354e-04 0.0
8.172155e-03 -1.951171e-04 0.0
8.503071e-03 -1.984793e-04 0.0
3.217112e-03 -3.556956e-04 0.0
3.546100e-03 -3.341852e-04 0.0
-1.355782e-03 -7.410030e-04 0.0
-1.031679e-03 -7.116752e-04 0.0
-6.178385e-03 -1.084414e-03 0.0
-5.858907e-03 -1.070562e-03 0.0
-1.128261e-02 -1.051151e-03 0.0
-1.096290e-02 -1.066991e-03 0.0
-1.611152e-02 -6.649730e-04 0.0
-1.578696e-02 -6.956765e-04 0.0
-2.102036e-02 -2.545593e-04 0.0
-2.069088e-02 -2.753796e-04 0.0
-2.630873e-02 -1.459319e-04 0.0
-2.597814e-02 -1.395687e-04 0.0
-3.124535e-02 -4.205651e-04 0.0
-3.091835e-02 -3.945580e-04 0.0
-3.643128e-02 -8.459767e-04 0.0
-3.610993e-02 -8.234235e-04 0.0
-4.154654e-02 -1.000227e-03 0.0
-4.122747e-02 -1.003741e-03 0.0
-4.667234e-02 -7.183941e-04 0.0
-4.634981e-02 -7.455463e-04 0.0
-5.187880e-02 -2.561810e-04 0.0
-5.155065e-02 -2.820833e-04 0.0
-5.715703e-02 -2.819506e-05 0.0
-5.682627e-02 -3.017544e-05 0.0
-6.276446e-02 -2.515171e-04 0.0
-6.243652e-02 -2.274098e-04 0.0
-6.796638e-02 -6.913127e-04 0.0
-6.764420e-02 -6.654825e-04 0.0
-7.340560e-02 -9.232566e-04 0.0
-7.308684e-02 -9.233342e-04 0.0
-7.884199e-02 -6.456294e-04 0.0
-7.852002e-02 -6.735375e-04 0.0
-8.436903e-02 -1.218990e-04 0.0
-8.404082e-02 -1.499553e-04 0.0
-9.031175e-02 1.375191e-04 0.0
-8.998082e-02 1.376551e-04 0.0
-9.591537e-02 -1.157179e-04 0.0
-9.558801e-02 -9.082296e-05 0.0
-1.017504e-01 -5.829485e-04 0.0
-1.014293e-01 -5.617809e-04 0.0
-1.078237e-01 -6.809019e-04 0.0
-1.075040e-01 -6.914948e-04 0.0
-1.136205e-01 -2.717360e-04 0.0
-1.132953e-01 -3.002677e-04 0.0
-1.198591e-01 1.433109e-04 0.0
-1.195283e-01 1.328380e-04 0.0
-1.225096e-01 1.601093e-04 0.0
-1.221781e-01 1.647554e-04 0.0
-1.228411e-01 1.535093e-04 0.0
-1.231725e-01 1.449628e-04 0.0
-1.235039e-01 1.344853e-04 0.0
-1.238352e-01 1.221005e-04 0.0
-1.244974e-01 9.174302e-05 0.0
-1.248283e-01 7.385144e-05 0.0
-1.251590e-01 5.421637e-05 0.0
-1.254895e-01 3.289399e-05 0.0
-1.258198e-01 9.944553e-06 0.0
-1.261499e-01 -1.456747e-05 0.0
-1.271387e-01 -9.673865e-05 0.0
-1.268094e-01 -6.798876e-05 0.0
-1.274677e-01 -1.267324e-04 0.0
-1.277964e-01 -1.578787e-04 0.0
-1.281248e-01 -1.900817e-04 0.0
-1.284529e-01 -2.232416e-04 0.0
-1.291079e-01 -2.920004e-04 0.0
-1.294349e-01 -3.273723e-04 0.0
-1.297615e-01 -3.632476e-04 0.0
-1.300877e-01 -3.995072e-04 0.0
-1.304135e-01 -4.360333e-04 0.0
-1.307390e-01 -4.727121e-04 0.0
-1.310641e-01 -5.094335e-04 0.0
-1.320370e-01 -6.187166e-04 0.0
-1.317131e-01 -5.825522e-04 0.0
-1.323606e-01 -6.544553e-04 0.0
-1.326838e-01 -6.896473e-04 0.0
-1.330066e-01 -7.241735e-04 0.0
-1.333291e-01 -7.579235e-04 0.0
-1.336513e-01 -7.907978e-04 0.0
-1.339731e-01 -8.227049e-04 0.0
-1.346160e-01 -8.832591e-04 0.0
-1.349369e-01 -9.117248e-04 0.0
-1.352576e-01 -9.388603e-04 0.0
-1.355781e-01 -9.645760e-04 0.0
-1.358983e-01 -9.887879e-04 0.0
-1.362183e-01 -1.011425e-03 0.0
-1.365381e-01 -1.032431e-03 0.0
-1.368578e-01 -1.051762e-03 0.0
-1.371774e-01 -1.069382e-03 0.0
-1.378163e-01 -1.099396e-03 0.0
-1.381357e-01 -1.111750e-03 0.0
-1.384550e-01 -1.122314e-03 0.0
-1.387743e-01 -1.131075e-03 0.0
-1.390936e-01 -1.138033e-03 0.0
-1.394130e-01 -1.143190e-03 0.0
-1.397324e-01 -1.146558e-03 0.0
-1.400519e-01 -1.148157e-03 0.0
-1.403715e-01 -1.148021e-03 0.0
-1.410112e-01 -1.142715e-03 0.0
-1.413313e-01 -1.137655e-03 0.0
-1.416517e-01 -1.131080e-03 0.0
-1.419723e-01 -1.123069e-03 0.0
-1.422931e-01 -1.113707e-03 0.0
-1.426142e-01 -1.103082e-03 0.0
-1.429356e-01 -1.091286e-03 0.0
-1.432573e-01 -1.078411e-03 0.0
-1.435793e-01 -1.064546e-03 0.0
-1.439016e-01 -1.049772e-03 0.0
-1.442241e-01 -1.034172e-03 0.0
-1.445470e-01 -1.017828e-03 0.0
-1.455176e-01 -9.653104e-04 0.0
-1.451937e-01 -9.832895e-04 0.0
-1.458420e-01 -9.470225e-04 0.0
-1.461667e-01 -9.285623e-04 0.0
-1.464918e-01 -9.100699e-04 0.0
-1.468174e-01 -8.916831e-04 0.0
-1.471433e-01 -8.735329e-04 0.0
-1.474696e-01 -8.557436e-04 0.0
-1.477962e-01 -8.384317e-04 0.0
-1.481232e-01 -8.217045e-04 0.0
-1.484505e-01 -8.056583e-04 0.0
-1.487781e-01 -7.903777e-04 0.0
-1.491059e-01 -7.759357e-04 0.0
-1.494340e-01 -7.623984e-04 0.0
-1.497623e-01 -7.498275e-04 0.0
-1.507487e-01 -7.185935e-04 0.0
-1.504197e-01 -7.278476e-04 0.0
-1.510781e-01 -7.106131e-04 0.0
-1.514077e-01 -7.040006e-04 0.0
-1.517375e-01 -6.988450e-04 0.0
-1.520675e-01 -6.952272e-04 0.0
-1.523978e-01 -6.932143e-04 0.0
-1.527282e-01 -6.928600e-04 0.0
-1.530587e-01 -6.942049e-04 0.0
-1.533893e-01 -6.972795e-04 0.0
-1.537200e-01 -7.021078e-04 0.0
-1.540507e-01 -7.087058e-04 0.0
-1.543815e-01 -7.170832e-04 0.0
-1.547122e-01 -7.272430e-04 0.0
-1.550430e-01 -7.391842e-04 0.0
-1.553737e-01 -7.528996e-04 0.0
-1.557043e-01 -7.683748e-04 0.0
-1.560349e-01 -7.855887e-04 0.0
-1.563654e-01 -8.045135e-04 0.0
-1.566957e-01 -8.251179e-04 0.0
-1.570259e-01 -8.473640e-04 0.0
-1.573560e-01 -8.712054e-04 0.0
-1.576859e-01 -8.965888e-04 0.0
-1.580155e-01 -9.234562e-04 0.0
-1.583450e-01 -9.517456e-04 0.0
-1.586742e-01 -9.813876e-04 0.0
-1.590031e-01 -1.012304e-03 0.0
-1.593317e-01 -1.044408e-03 0.0
-1.596600e-01 -1.077607e-03 0.0
-1.599880e-01 -1.111800e-03 0.0
-1.603156e-01 -1.146873e-03 0.0
-1.606429e-01 -1.182701e-03 0.0
-1.609697e-01 -1.219152e-03 0.0
-1.612961e-01 -1.256079e-03 0.0
-1.616222e-01 -1.293332e-03 0.0
-1.619478e-01 -1.330753e-03 0.0
-1.622731e-01 -1.368157e-03 0.0
-1.629232e-01 -1.442523e-03 0.0
-1.625982e-01 -1.405419e-03 0.0
-1.500909e-01 -7.382875e-04 0.0
-1.448702e-01 -1.000833e-03 0.0
-1.406913e-01 -1.146190e-03 0.0
-1.374969e-01 -1.085267e-03 0.0
-1.342947e-01 -8.535560e-04 0.0
-1.313888e-01 -5.460853e-04 0.0
-1.287806e-01 -2.572511e-04 0.0
-1.264798e-01 -4.057012e-05 0.0
-1.241663e-01 1.078410e-04 0.0
-1.218466e-01 1.674457e-04 0.0
-1.215152e-01 1.681866e-04 0.0
-1.211838e-01 1.669908e-04 0.0
-1.208525e-01 1.638769e-04 0.0
-1.205212e-01 1.588706e-04 0.0
-1.201901e-01 1.520030e-04 0.0
-1.191977e-01 1.206336e-04 0.0
-1.188673e-01 1.067586e-04 0.0
-1.185371e-01 9.128103e-05 0.0
-1.182071e-01 7.427687e-05 0.0
-1.178775e-01 5.582813e-05 0.0
-1.175481e-01 3.602145e-05 0.0
-1.172190e-01 1.494857e-05 0.0
-1.168902e-01 -7.294950e-06 0.0
-1.165618e-01 -3.061033e-05 0.0
-1.162336e-01 -5.489599e-05 0.0
-1.159058e-01 -8.004701e-05 0.0
-1.155784e-01 -1.059553e-04 0.0
-1.152513e-01 -1.325135e-04 0.0
-1.149245e-01 -1.596188e-04 0.0
-1.145980e-01 -1.871774e-04 0.0
-1.142719e-01 -2.151035e-04 0.0
-1.139460e-01 -2.433170e-04 0.0
-1.129705e-01 -3.288065e-04 0.0
-1.126461e-01 -3.572299e-04 0.0
-1.123222e-01 -3.853955e-04 0.0
-1.119987e-01 -4.131534e-04 0.0
-1.116756e-01 -4.403506e-04 0.0
-1.113529e-01 -4.668402e-04 0.0
-1.110307e-01 -4.924872e-04 0.0
-1.107088e-01 -5.171700e-04 0.0
-1.103872e-01 -5.407786e-04 0.0
-1.100660e-01 -5.632127e-04 0.0
-1.097451e-01 -5.843799e-04 0.0
-1.094244e-01 -6.041960e-04 0.0
-1.091039e-01 -6.225877e-04 0.0
-1.087836e-01 -6.394955e-04 0.0
-1.084635e-01 -6.548731e-04 0.0
-1.081436e-01 -6.686851e-04 0.0
-1.071844e-01 -7.004271e-04 0.0
-1.068650e-01 -7.076637e-04 0.0
-1.065456e-01 -7.131591e-04 0.0
-1.062263e-01 -7.168698e-04 0.0
-1.059071e-01 -7.187573e-04 0.0
-1.055880e-01 -7.187948e-04 0.0
-1.052689e-01 -7.169708e-04 0.0
-1.049497e-01 -7.132914e-04 0.0
-1.046305e-01 -7.077763e-04 0.0
-1.043111e-01 -7.004571e-04 0.0
-1.039917e-01 -6.913738e-04 0.0
-1.036721e-01 -6.805746e-04 0.0
-1.033523e-01 -6.681147e-04 0.0
-1.030323e-01 -6.540521e-04 0.0
-1.027122e-01 -6.384452e-04 0.0
-1.023918e-01 -6.213513e-04 0.0
-1.020712e-01 -6.028304e-04 0.0
-1.011079e-01 -5.394173e-04 0.0
-1.007862e-01 -5.159559e-04 0.0
-1.004641e-01 -4.915109e-04 0.0
-1.001416e-01 -4.662075e-04 0.0
-9.981875e-02 -4.401771e-04 0.0
-9.949548e-02 -4.135508e-04 0.0
-9.917181e-02 -3.864567e-04 0.0
-9.884775e-02 -3.590204e-04 0.0
-9.852331e-02 -3.313661e-04 0.0
-9.819849e-02 -3.036162e-04 0.0
-9.787329e-02 -2.758902e-04 0.0
-9.754775e-02 -2.483016e-04 0.0
-9.722187e-02 -2.209553e-04 0.0
-9.689568e-02 -1.939452e-04 0.0
-9.656919e-02 -1.673536e-04 0.0
-9.624242e-02 -1.412539e-04 0.0
-9.526032e-02 -6.665768e-05 0.0
-9.493229e-02 -4.333223e-05 0.0
-9.460390e-02 -2.096402e-05 0.0
-9.427514e-02 3.187015e-07 0.0
-9.394604e-02 2.038895e-05 0.0
-9.361661e-02 3.912940e-05 0.0
-9.328689e-02 5.643786e-05 0.0
-9.295692e-02 7.222839e-05 0.0
-9.262673e-02 8.642881e-05 0.0
-9.229634e-02 9.897821e-05 0.0
-9.196580e-02 1.098265e-04 0.0
-9.163514e-02 1.189346e-04 0.0
-9.130438e-02 1.262737e-04 0.0
-9.097354e-02 1.318240e-04 0.0
-9.064266e-02 1.355745e-04 0.0
-8.964988e-02 1.359824e-04 0.0
-8.931894e-02 1.324968e-04 0.0
-8.898803e-02 1.271977e-04 0.0
-8.865714e-02 1.200857e-04 0.0
-8.832631e-02 1.111679e-04 0.0
-8.799556e-02 1.004600e-04 0.0
-8.766492e-02 8.798871e-05 0.0
-8.733441e-02 7.379206e-05 0.0
-8.700407e-02 5.791854e-05 0.0
-8.667391e-02 4.042477e-05 0.0
-8.634394e-02 2.137283e-05 0.0
-8.601419e-02 8.286187e-07 0.0
-8.568467e-02 -2.113978e-05 0.0
-8.535538e-02 -4.446395e-05 0.0
-8.502634e-02 -6.907681e-05 0.0
-8.469754e-02 -9.491198e-05 0.0
-8.371295e-02 -1.789888e-04 0.0
-8.338545e-02 -2.088873e-04 0.0
-8.305834e-02 -2.395267e-04 0.0
-8.273165e-02 -2.707734e-04 0.0
-8.240538e-02 -3.024888e-04 0.0
-8.207953e-02 -3.345335e-04 0.0
-8.175411e-02 -3.667715e-04 0.0
-8.142909e-02 -3.990702e-04 0.0
-8.110448e-02 -4.313012e-04 0.0
-8.078025e-02 -4.633407e-04 0.0
-8.045639e-02 -4.950718e-04 0.0
-8.013288e-02 -5.263853e-04 0.0
-7.980970e-02 -5.571818e-04 0.0
-7.948683e-02 -5.873733e-04 0.0
-7.916426e-02 -6.168811e-04 0.0
-7.819839e-02 -7.005082e-04 0.0
-7.787711e-02 -7.264364e-04 0.0
-7.755619e-02 -7.511975e-04 0.0
-7.723563e-02 -7.746642e-04 0.0
-7.691540e-02 -7.967116e-04 0.0
-7.659549e-02 -8.172251e-04 0.0
-7.627586e-02 -8.361052e-04 0.0
-7.595645e-02 -8.532694e-04 0.0
-7.563725e-02 -8.686506e-04 0.0
-7.531821e-02 -8.821954e-04 0.0
-7.499931e-02 -8.938611e-04 0.0
-7.468049e-02 -9.036155e-04 0.0
-7.436174e-02 -9.114377e-04 0.0
-7.404303e-02 -9.173179e-04 0.0
-7.372432e-02 -9.212554e-04 0.0
-7.276804e-02 -9.215008e-04 0.0
-7.244917e-02 -9.177748e-04 0.0
-7.213022e-02 -9.121749e-04 0.0
-7.181116e-02 -9.047247e-04 0.0
-7.149198e-02 -8.954553e-04 0.0
-7.117264e-02 -8.844075e-04 0.0
-7.085312e-02 -8.716341e-04 0.0
-7.053339e-02 -8.571991e-04 0.0
-7.021344e-02 -8.411755e-04 0.0
-6.989324e-02 -8.236420e-04 0.0
-6.957278e-02 -8.046809e-04 0.0
-6.925205e-02 -7.843757e-04 0.0
-6.893105e-02 -7.628085e-04 0.0
-6.860979e-02 -7.400578e-04 0.0
-6.828823e-02 -7.161997e-04 0.0
-6.732165e-02 -6.388144e-04 0.0
-6.699872e-02 -6.114272e-04 0.0
-6.667536e-02 -5.834560e-04 0.0
-6.635157e-02 -5.550462e-04 0.0
-6.602734e-02 -5.263463e-04 0.0
-6.570268e-02 -4.975019e-04 0.0
-6.537760e-02 -4.686535e-04 0.0
-6.505212e-02 -4.399334e-04 0.0
-6.472626e-02 -4.114649e-04 0.0
-6.440005e-02 -3.833612e-04 0.0
-6.407351e-02 -3.557246e-04 0.0
-6.374667e-02 -3.286460e-04 0.0
-6.341954e-02 -3.022051e-04 0.0
-6.309213e-02 -2.764725e-04 0.0
-6.210828e-02 -2.042300e-04 0.0
-6.177973e-02 -1.820751e-04 0.0
-6.145087e-02 -1.610490e-04 0.0
-6.112169e-02 -1.412638e-04 0.0
-6.079222e-02 -1.228287e-04 0.0
-6.046248e-02 -1.058420e-04 0.0
-6.013250e-02 -9.038838e-05 0.0
-5.980231e-02 -7.653893e-05 0.0
-5.947195e-02 -6.435166e-05 0.0
-5.914145e-02 -5.387208e-05 0.0
-5.881084e-02 -4.513444e-05 0.0
-5.848014e-02 -3.816417e-05 0.0
-5.814939e-02 -3.297928e-05 0.0
-5.781861e-02 -2.958977e-05 0.0
-5.748781e-02 -2.799702e-05 0.0
-5.649554e-02 -3.392582e-05 0.0
-5.616487e-02 -3.943658e-05 0.0
-5.583426e-02 -4.669332e-05 0.0
-5.550372e-02 -5.567780e-05 0.0
-5.517330e-02 -6.636520e-05 0.0
-5.484299e-02 -7.872231e-05 0.0
-5.451283e-02 -9.270715e-05 0.0
-5.418284e-02 -1.082695e-04 0.0
-5.385304e-02 -1.253522e-04 0.0
-5.352343e-02 -1.438926e-04 0.0
-5.319404e-02 -1.638252e-04 0.0
-5.286487e-02 -1.850850e-04 0.0
-5.253593e-02 -2.076078e-04 0.0
-5.220723e-02 -2.313295e-04 0.0
-5.122283e-02 -3.089480e-04 0.0
-5.089535e-02 -3.366687e-04 0.0
-5.056824e-02 -3.651269e-04 0.0
-5.024153e-02 -3.941944e-04 0.0
-4.991522e-02 -4.237381e-04 0.0
-4.958931e-02 -4.536244e-04 0.0
-4.926380e-02 -4.837227e-04 0.0
-4.893867e-02 -5.139072e-04 0.0
-4.861392e-02 -5.440568e-04 0.0
-4.828952e-02 -5.740561e-04 0.0
-4.796547e-02 -6.037978e-04 0.0
-4.764174e-02 -6.331856e-04 0.0
-4.731831e-02 -6.621334e-04 0.0
-4.699517e-02 -6.905621e-04 0.0
-4.602762e-02 -7.719223e-04 0.0
-4.570577e-02 -7.974168e-04 0.0
-4.538429e-02 -8.219054e-04 0.0
-4.506317e-02 -8.452597e-04 0.0
-4.474239e-02 -8.673533e-04 0.0
-4.442193e-02 -8.880697e-04 0.0
-4.410176e-02 -9.073061e-04 0.0
-4.378184e-02 -9.249753e-04 0.0
-4.346213e-02 -9.410046e-04 0.0
-4.314260e-02 -9.553341e-04 0.0
-4.282322e-02 -9.679160e-04 0.0
-4.250395e-02 -9.787152e-04 0.0
-4.218476e-02 -9.877082e-04 0.0
-4.186563e-02 -9.948812e-04 0.0
-4.090840e-02 -1.005419e-03 0.0
-4.058934e-02 -1.005260e-03 0.0
-4.027025e-02 -1.003263e-03 0.0
-3.995113e-02 -9.994309e-04 0.0
-3.963195e-02 -9.937725e-04 0.0
-3.931267e-02 -9.863078e-04 0.0
-3.899328e-02 -9.770692e-04 0.0
-3.867374e-02 -9.661009e-04 0.0
-3.835402e-02 -9.534574e-04 0.0
-3.803412e-02 -9.391998e-04 0.0
-3.771401e-02 -9.233928e-04 0.0
-3.739369e-02 -9.061014e-04 0.0
-3.707313e-02 -8.873902e-04 0.0
-3.675234e-02 -8.673250e-04 0.0
-3.578826e-02 -7.997606e-04 0.0
-3.546623e-02 -7.750937e-04 0.0
-3.514382e-02 -7.495441e-04 0.0
-3.482101e-02 -7.232428e-04 0.0
-3.449780e-02 -6.963255e-04 0.0
-3.417419e-02 -6.689284e-04 0.0
-3.385017e-02 -6.411841e-04 0.0
-3.352576e-02 -6.132206e-04 0.0
-3.320098e-02 -5.851600e-04 0.0
-3.287584e-02 -5.571182e-04 0.0
-3.255036e-02 -5.292019e-04 0.0
-3.222455e-02 -5.015069e-04 0.0
-3.189845e-02 -4.741179e-04 0.0
-3.157205e-02 -4.471119e-04 0.0
-3.059102e-02 -3.691824e-04 0.0
-3.026334e-02 -3.445483e-04 0.0
-2.993530e-02 -3.207733e-04 0.0
-2.960690e-02 -2.979847e-04 0.0
-2.927814e-02 -2.763083e-04 0.0
-2.894907e-02 -2.558613e-04 0.0
-2.861970e-02 -2.367472e-04 0.0
-2.829007e-02 -2.190538e-04 0.0
-2.796022e-02 -2.028542e-04 0.0
-2.763019e-02 -1.882079e-04 0.0
-2.730000e-02 -1.751611e-04 0.0
-2.696968e-02 -1.637493e-04 0.0
-2.663925e-02 -1.539989e-04 0.0
-2.564747e-02 -1.349266e-04 0.0
-2.531674e-02 -1.320296e-04 0.0
-2.498596e-02 -1.308987e-04 0.0
-2.465514e-02 -1.315550e-04 0.0
-2.432430e-02 -1.340153e-04 0.0
-2.399346e-02 -1.382873e-04 0.0
-2.366267e-02 -1.443662e-04 0.0
-2.333194e-02 -1.522353e-04 0.0
-2.300129e-02 -1.618682e-04 0.0
-2.267076e-02 -1.732318e-04 0.0
-2.234035e-02 -1.862882e-04 0.0
-2.201009e-02 -2.009958e-04 0.0
-2.168000e-02 -2.173098e-04 0.0
-2.135008e-02 -2.351821e-04 0.0
-2.036164e-02 -2.975736e-04 0.0
-2.003269e-02 -3.210561e-04 0.0
-1.970405e-02 -3.457327e-04 0.0
-1.937573e-02 -3.714993e-04 0.0
-1.904776e-02 -3.982464e-04 0.0
-1.872014e-02 -4.258615e-04 0.0
-1.839287e-02 -4.542306e-04 0.0
-1.806595e-02 -4.832402e-04 0.0
-1.773938e-02 -5.127795e-04 0.0
-1.741315e-02 -5.427432e-04 0.0
-1.708726e-02 -5.730335e-04 0.0
-1.676168e-02 -6.035596e-04 0.0
-1.643643e-02 -6.342352e-04 0.0
-1.546278e-02 -7.262372e-04 0.0
-1.513901e-02 -7.565322e-04 0.0
-1.481566e-02 -7.864211e-04 0.0
-1.449275e-02 -8.157571e-04 0.0
-1.417026e-02 -8.443916e-04 0.0
-1.384817e-02 -8.721824e-04 0.0
-1.352647e-02 -8.989982e-04 0.0
-1.320512e-02 -9.247205e-04 0.0
-1.288408e-02 -9.492440e-04 0.0
-1.256334e-02 -9.724772e-04 0.0
-1.224284e-02 -9.943432e-04 0.0
-1.192257e-02 -1.014779e-03 0.0
-1.160249e-02 -1.033731e-03 0.0
-1.064338e-02 -1.081195e-03 0.0
-1.032404e-02 -1.093708e-03 0.0
-1.000487e-02 -1.104465e-03 0.0
-9.685860e-03 -1.113403e-03 0.0
-9.366989e-03 -1.120465e-03 0.0
-9.048220e-03 -1.125602e-03 0.0
-8.729517e-03 -1.128783e-03 0.0
-8.410842e-03 -1.129994e-03 0.0
-8.092160e-03 -1.129236e-03 0.0
-7.773442e-03 -1.126518e-03 0.0
-7.454660e-03 -1.121859e-03 0.0
-7.135787e-03 -1.115283e-03 0.0
-6.816800e-03 -1.106823e-03 0.0
-6.497674e-03 -1.096519e-03 0.0
-5.539213e-03 -1.055024e-03 0.0
-5.219274e-03 -1.037873e-03 0.0
-4.899067e-03 -1.019189e-03 0.0
-4.578570e-03 -9.990635e-04 0.0
-4.257765e-03 -9.775953e-04 0.0
-3.936639e-03 -9.548869e-04 0.0
-3.615184e-03 -9.310436e-04 0.0
-3.293396e-03 -9.061718e-04 0.0
-2.971273e-03 -8.803779e-04 0.0
-2.648820e-03 -8.537659e-04 0.0
-2.326043e-03 -8.264341e-04 0.0
-2.002948e-03 -7.984726e-04 0.0
-1.679532e-03 -7.699669e-04 0.0
-7.071932e-04 -6.820934e-04 0.0
-3.822984e-04 -6.523836e-04 0.0
-5.697497e-05 -6.226834e-04 0.0
2.687857e-04 -5.931406e-04 0.0
5.949792e-04 -5.639047e-04 0.0
9.215884e-04 -5.351208e-04 0.0
1.248587e-03 -5.069230e-04 0.0
1.575945e-03 -4.794305e-04 0.0
1.903629e-03 -4.527462e-04 0.0
2.231611e-03 -4.269587e-04 0.0
2.559864e-03 -4.021442e-04 0.0
2.888367e-03 -3.783693e-04 0.0
3.875336e-03 -3.139059e-04 0.0
4.204825e-03 -2.949402e-04 0.0
4.534568e-03 -2.773713e-04 0.0
4.864559e-03 -2.612870e-04 0.0
5.194780e-03 -2.467717e-04 0.0
5.525203e-03 -2.339020e-04 0.0
5.855798e-03 -2.227416e-04 0.0
6.186530e-03 -2.133390e-04 0.0
6.517367e-03 -2.057293e-04 0.0
6.848279e-03 -1.999368e-04 0.0
7.179239e-03 -1.959767e-04 0.0
7.510220e-03 -1.938557e-04 0.0
7.841199e-03 -1.935719e-04 0.0
8.833931e-03 -2.036426e-04 0.0
9.164717e-03 -2.105890e-04 0.0
9.495412e-03 -2.192945e-04 0.0
9.825999e-03 -2.297299e-04 0.0
1.015646e-02 -2.418599e-04 0.0
1.048676e-02 -2.556427e-04 0.0
1.081690e-02 -2.710289e-04 0.0
1.114684e-02 -2.879611e-04 0.0
1.147659e-02 -3.063766e-04 0.0
1.180612e-02 -3.262104e-04 0.0
1.213542e-02 -3.473977e-04 0.0
1.246449e-02 -3.698734e-04 0.0
1.279331e-02 -3.935708e-04 0.0
1.377804e-02 -4.712342e-04 0.0
1.410562e-02 -4.990075e-04 0.0
1.443281e-02 -5.275351e-04 0.0
1.475961e-02 -5.566867e-04 0.0
1.508600e-02 -5.863279e-04 0.0
1.541199e-02 -6.163251e-04 0.0
1.573757e-02 -6.465469e-04 0.0
1.606277e-02 -6.768659e-04 0.0
1.638759e-02 -7.071610e-04 0.0
1.671206e-02 -7.373212e-04 0.0
1.703619e-02 -7.672470e-04 0.0
1.736000e-02 -7.968481e-04 0.0
1.768350e-02 -8.260398e-04 0.0
1.865202e-02 -9.102913e-04 0.0
1.897415e-02 -9.369326e-04 0.0
1.929590e-02 -9.626505e-04 0.0
1.961727e-02 -9.873112e-04 0.0
1.993827e-02 -1.010783e-03 0.0
2.025894e-02 -1.032945e-03 0.0
2.057930e-02 -1.053687e-03 0.0