# vtk DataFile Version 2.0
Simplicial Mesh Example
ASCII
DATASET UNSTRUCTURED_GRID
POINTS 1001 double
4.900000e+04 5.000000e+02 0.0
4.910000e+04 5.000000e+02 0.0
4.770000e+04 5.000000e+02 0.0
4.780000e+04 5.000000e+02 0.0
4.640000e+04 5.000000e+02 0.0
4.650000e+04 5.000000e+02 0.0
4.510000e+04 5.000000e+02 0.0
4.520000e+04 5.000000e+02 0.0
4.380000e+04 5.000000e+02 0.0
4.390000e+04 5.000000e+02 0.0
4.250000e+04 5.000000e+02 0.0
4.260000e+04 5.000000e+02 0.0
4.120000e+04 5.000000e+02 0.0
4.130000e+04 5.000000e+02 0.0
3.990000e+04 5.000000e+02 0.0
4.000000e+04 5.000000e+02 0.0
3.860000e+04 5.000000e+02 0.0
3.870000e+04 5.000000e+02 0.0
3.730000e+04 5.000000e+02 0.0
3.740000e+04 5.000000e+02 0.0
3.600000e+04 5.000000e+02 0.0
3.610000e+04 5.000000e+02 0.0
3.460000e+04 5.000000e+02 0.0
3.470000e+04 5.000000e+02 0.0
3.330000e+04 5.000000e+02 0.0
3.340000e+04 5.000000e+02 0.0
3.200000e+04 5.000000e+02 0.0
3.210000e+04 5.000000e+02 0.0
3.060000e+04 5.000000e+02 0.0
3.070000e+04 5.000000e+02 0.0
2.930000e+04 5.000000e+02 0.0
2.940000e+04 5.000000e+02 0.0
2.800000e+04 5.000000e+02 0.0
2.810000e+04 5.000000e+02 0.0
2.660000e+04 5.000000e+02 0.0
2.670000e+04 5.000000e+02 0.0
2.520000e+04 5.000000e+02 0.0
2.530000e+04 5.000000e+02 0.0
2.390000e+04 5.000000e+02 0.0
2.400000e+04 5.000000e+02 0.0
2.250000e+04 5.000000e+02 0.0
2.260000e+04 5.000000e+02 0.0
2.110000e+04 5.000000e+02 0.0
2.120000e+04 5.000000e+02 0.0
1.980000e+04 5.000000e+02 0.0
1.990000e+04 5.000000e+02 0.0
1.840000e+04 5.000000e+02 0.0
1.850000e+04 5.000000e+02 0.0
1.700000e+04 5.000000e+02 0.0
1.710000e+04 5.000000e+02 0.0
1.560000e+04 5.000000e+02 0.0
1.570000e+04 5.000000e+02 0.0
1.420000e+04 5.000000e+02 0.0
1.430000e+04 5.000000e+02 0.0
1.270000e+04 5.000000e+02 0.0
1.280000e+04 5.000000e+02 0.0
1.130000e+04 5.000000e+02 0.0
1.140000e+04 5.000000e+02 0.0
9.900000e+03 5.000000e+02 0.0
1.000000e+04 5.000000e+02 0.0
8.500000e+03 5.000000e+02 0.0
8.600000e+03 5.000000e+02 0.0
7.000000e+03 5.000000e+02 0.0
7.100000e+03 5.000000e+02 0.0
5.600000e+03 5.000000e+02 0.0
5.700000e+03 5.000000e+02 0.0
4.100000e+03 5.000000e+02 0.0
4.200000e+03 5.000000e+02 0.0
2.600000e+03 5.000000e+02 0.0
2.700000e+03 5.000000e+02 0.0
1.100000e+03 5.000000e+02 0.0
1.200000e+03 5.000000e+02 0.0
-3.000000e+02 5.000000e+02 0.0
-2.000000e+02 5.000000e+02 0.0
-1.800000e+03 5.000000e+02 0.0
-1.700000e+03 5.000000e+02 0.0
-3.400000e+03 5.000000e+02 0.0
-3.300000e+03 5.000000e+02 0.0
-4.900000e+03 5.000000e+02 0.0
-4.800000e+03 5.000000e+02 0.0
-6.400000e+03 5.000000e+02 0.0
-6.300000e+03 5.000000e+02 0.0
-8.000000e+03 5.000000e+02 0.0
-7.900000e+03 5.000000e+02 0.0
-9.500000e+03 5.000000e+02 0.0
-9.400000e+03 5.000000e+02 0.0
-1.110000e+04 5.000000e+02 0.0
-1.100000e+04 5.000000e+02 0.0
-1.270000e+04 5.000000e+02 0.0
-1.260000e+04 5.000000e+02 0.0
-1.430000e+04 5.000000e+02 0.0
-1.420000e+04 5.000000e+02 0.0
-1.590000e+04 5.000000e+02 0.0
-1.580000e+04 5.000000e+02 0.0
-1.750000e+04 5.000000e+02 0.0
-1.740000e+04 5.000000e+02 0.0
-1.920000e+04 5.000000e+02 0.0
-1.910000e+04 5.000000e+02 0.0
-2.080000e+04 5.000000e+02 0.0
-2.070000e+04 5.000000e+02 0.0
-2.250000e+04 5.000000e+02 0.0
-2.240000e+04 5.000000e+02 0.0
-2.420000e+04 5.000000e+02 0.0
-2.410000e+04 5.000000e+02 0.0
-2.590000e+04 5.000000e+02 0.0
-2.580000e+04 5.000000e+02 0.0
-2.770000e+04 5.000000e+02 0.0
-2.760000e+04 5.000000e+02 0.0
-2.940000e+04 5.000000e+02 0.0
-2.930000e+04 5.000000e+02 0.0
-3.120000e+04 5.000000e+02 0.0
-3.110000e+04 5.000000e+02 0.0
-3.310000e+04 5.000000e+02 0.0
-3.300000e+04 5.000000e+02 0.0
-3.490000e+04 5.000000e+02 0.0
-3.480000e+04 5.000000e+02 0.0
-3.680000e+04 5.000000e+02 0.0
-3.670000e+04 5.000000e+02 0.0
-3.760000e+04 5.000000e+02 0.0
-3.750000e+04 5.000000e+02 0.0
-3.770000e+04 5.000000e+02 0.0
-3.780000e+04 5.000000e+02 0.0
-3.790000e+04 5.000000e+02 0.0
-3.800000e+04 5.000000e+02 0.0
-3.820000e+04 5.000000e+02 0.0
-3.830000e+04 5.000000e+02 0.0
-3.840000e+04 5.000000e+02 0.0
-3.850000e+04 5.000000e+02 0.0
-3.860000e+04 5.000000e+02 0.0
-3.870000e+04 5.000000e+02 0.0
-3.900000e+04 5.000000e+02 0.0
-3.890000e+04 5.000000e+02 0.0
-3.910000e+04 5.000000e+02 0.0
-3.920000e+04 5.000000e+02 0.0
-3.930000e+04 5.000000e+02 0.0
-3.940000e+04 5.000000e+02 0.0
-3.960000e+04 5.000000e+02 0.0
-3.970000e+04 5.000000e+02 0.0
-3.980000e+04 5.000000e+02 0.0
-3.990000e+04 5.000000e+02 0.0
-4.000000e+04 5.000000e+02 0.0
-4.010000e+04 5.000000e+02 0.0
-4.020000e+04 5.000000e+02 0.0
-4.050000e+04 5.000000e+02 0.0
-4.040000e+04 5.000000e+02 0.0
-4.060000e+04 5.000000e+02 0.0
-4.070000e+04 5.000000e+02 0.0
-4.080000e+04 5.000000e+02 0.0
-4.090000e+04 5.000000e+02 0.0
-4.100000e+04 5.000000e+02 0.0
-4.110000e+04 5.000000e+02 0.0
-4.130000e+04 5.000000e+02 0.0
-4.140000e+04 5.000000e+02 0.0
-4.150000e+04 5.000000e+02 0.0
-4.160000e+04 5.000000e+02 0.0
-4.170000e+04 5.000000e+02 0.0
-4.180000e+04 5.000000e+02 0.0
-4.190000e+04 5.000000e+02 0.0
-4.200000e+04 5.000000e+02 0.0
-4.210000e+04 5.000000e+02 0.0
-4.230000e+04 5.000000e+02 0.0
-4.240000e+04 5.000000e+02 0.0
-4.250000e+04 5.000000e+02 0.0
-4.260000e+04 5.000000e+02 0.0
-4.270000e+04 5.000000e+02 0.0
-4.280000e+04 5.000000e+02 0.0
-4.290000e+04 5.000000e+02 0.0
-4.300000e+04 5.000000e+02 0.0
-4.310000e+04 5.000000e+02 0.0
-4.330000e+04 5.000000e+02 0.0
-4.340000e+04 5.000000e+02 0.0
-4.350000e+04 5.000000e+02 0.0
-4.360000e+04 5.000000e+02 0.0
-4.370000e+04 5.000000e+02 0.0
-4.380000e+04 5.000000e+02 0.0
-4.390000e+04 5.000000e+02 0.0
-4.400000e+04 5.000000e+02 0.0
-4.410000e+04 5.000000e+02 0.0
-4.420000e+04 5.000000e+02 0.0
-4.430000e+04 5.000000e+02 0.0
-4.440000e+04 5.000000e+02 0.0
-4.470000e+04 5.000000e+02 0.0
-4.460000e+04 5.000000e+02 0.0
-4.480000e+04 5.000000e+02 0.0
-4.490000e+04 5.000000e+02 0.0
-4.500000e+04 5.000000e+02 0.0
-4.510000e+04 5.000000e+02 0.0
-4.520000e+04 5.000000e+02 0.0
-4.530000e+04 5.000000e+02 0.0
-4.540000e+04 5.000000e+02 0.0
-4.550000e+04 5.000000e+02 0.0
-4.560000e+04 5.000000e+02 0.0
-4.570000e+04 5.000000e+02 0.0
-4.580000e+04 5.000000e+02 0.0
-4.590000e+04 5.000000e+02 0.0
-4.600000e+04 5.000000e+02 0.0
-4.630000e+04 5.000000e+02 0.0
-4.620000e+04 5.000000e+02 0.0
-4.640000e+04 5.000000e+02 0.0
-4.650000e+04 5.000000e+02 0.0
-4.660000e+04 5.000000e+02 0.0
-4.670000e+04 5.000000e+02 0.0
-4.680000e+04 5.000000e+02 0.0
-4.690000e+04 5.000000e+02 0.0
-4.700000e+04 5.000000e+02 0.0
-4.710000e+04 5.000000e+02 0.0
-4.720000e+04 5.000000e+02 0.0
-4.730000e+04 5.000000e+02 0.0
-4.740000e+04 5.000000e+02 0.0
-4.750000e+04 5.000000e+02 0.0
-4.760000e+04 5.000000e+02 0.0
-4.770000e+04 5.000000e+02 0.0
-4.780000e+04 5.000000e+02 0.0
-4.790000e+04 5.000000e+02 0.0
-4.800000e+04 5.000000e+02 0.0
-4.810000e+04 5.000000e+02 0.0
-4.820000e+04 5.000000e+02 0.0
-4.830000e+04 5.000000e+02 0.0
-4.840000e+04 5.000000e+02 0.0
-4.850000e+04 5.000000e+02 0.0
-4.860000e+04 5.000000e+02 0.0
-4.870000e+04 5.000000e+02 0.0
-4.880000e+04 5.000000e+02 0.0
-4.890000e+04 5.000000e+02 0.0
-4.900000e+04 5.000000e+02 0.0
-4.910000e+04 5.000000e+02 0.0
-4.920000e+04 5.000000e+02 0.0
-4.930000e+04 5.000000e+02 0.0
-4.940000e+04 5.000000e+02 0.0
-4.950000e+04 5.000000e+02 0.0
-4.960000e+04 5.000000e+02 0.0
-4.970000e+04 5.000000e+02 0.0
-4.980000e+04 5.000000e+02 0.0
-5.000000e+04 5.000000e+02 0.0
-4.990000e+04 5.000000e+02 0.0
-4.610000e+04 5.000000e+02 0.0
-4.450000e+04 5.000000e+02 0.0
-4.320000e+04 5.000000e+02 0.0
-4.220000e+04 5.000000e+02 0.0
-4.120000e+04 5.000000e+02 0.0
-4.030000e+04 5.000000e+02 0.0
-3.950000e+04 5.000000e+02 0.0
-3.880000e+04 5.000000e+02 0.0
-3.810000e+04 5.000000e+02 0.0
-3.740000e+04 5.000000e+02 0.0
-3.730000e+04 5.000000e+02 0.0
-3.720000e+04 5.000000e+02 0.0
-3.710000e+04 5.000000e+02 0.0
-3.700000e+04 5.000000e+02 0.0
-3.690000e+04 5.000000e+02 0.0
-3.660000e+04 5.000000e+02 0.0
-3.650000e+04 5.000000e+02 0.0
-3.640000e+04 5.000000e+02 0.0
-3.630000e+04 5.000000e+02 0.0
-3.620000e+04 5.000000e+02 0.0
-3.610000e+04 5.000000e+02 0.0
-3.600000e+04 5.000000e+02 0.0
-3.590000e+04 5.000000e+02 0.0
-3.580000e+04 5.000000e+02 0.0
-3.570000e+04 5.000000e+02 0.0
-3.560000e+04 5.000000e+02 0.0
-3.550000e+04 5.000000e+02 0.0
-3.540000e+04 5.000000e+02 0.0
-3.530000e+04 5.000000e+02 0.0
-3.520000e+04 5.000000e+02 0.0
-3.510000e+04 5.000000e+02 0.0
-3.500000e+04 5.000000e+02 0.0
-3.470000e+04 5.000000e+02 0.0
-3.460000e+04 5.000000e+02 0.0
-3.450000e+04 5.000000e+02 0.0
-3.440000e+04 5.000000e+02 0.0
-3.430000e+04 5.000000e+02 0.0
-3.420000e+04 5.000000e+02 0.0
-3.410000e+04 5.000000e+02 0.0
-3.400000e+04 5.000000e+02 0.0
-3.390000e+04 5.000000e+02 0.0
-3.380000e+04 5.000000e+02 0.0
-3.370000e+04 5.000000e+02 0.0
-3.360000e+04 5.000000e+02 0.0
-3.350000e+04 5.000000e+02 0.0
-3.340000e+04 5.000000e+02 0.0
-3.330000e+04 5.000000e+02 0.0
-3.320000e+04 5.000000e+02 0.0
-3.290000e+04 5.000000e+02 0.0
-3.280000e+04 5.000000e+02 0.0
-3.270000e+04 5.000000e+02 0.0
-3.260000e+04 5.000000e+02 0.0
-3.250000e+04 5.000000e+02 0.0
-3.240000e+04 5.000000e+02 0.0
-3.230000e+04 5.000000e+02 0.0
-3.220000e+04 5.000000e+02 0.0
-3.210000e+04 5.000000e+02 0.0
-3.200000e+04 5.000000e+02 0.0
-3.190000e+04 5.000000e+02 0.0
-3.180000e+04 5.000000e+02 0.0
-3.170000e+04 5.000000e+02 0.0
-3.160000e+04 5.000000e+02 0.0
-3.150000e+04 5.000000e+02 0.0
-3.140000e+04 5.000000e+02 0.0
-3.130000e+04 5.000000e+02 0.0
-3.100000e+04 5.000000e+02 0.0
-3.090000e+04 5.000000e+02 0.0
-3.080000e+04 5.000000e+02 0.0
-3.070000e+04 5.000000e+02 0.0
-3.060000e+04 5.000000e+02 0.0
-3.050000e+04 5.000000e+02 0.0
-3.040000e+04 5.000000e+02 0.0
-3.030000e+04 5.000000e+02 0.0
-3.020000e+04 5.000000e+02 0.0
-3.010000e+04 5.000000e+02 0.0
-3.000000e+04 5.000000e+02 0.0
-2.990000e+04 5.000000e+02 0.0
-2.980000e+04 5.000000e+02 0.0
-2.970000e+04 5.000000e+02 0.0
-2.960000e+04 5.000000e+02 0.0
-2.950000e+04 5.000000e+02 0.0
-2.920000e+04 5.000000e+02 0.0
-2.910000e+04 5.000000e+02 0.0
-2.900000e+04 5.000000e+02 0.0
-2.890000e+04 5.000000e+02 0.0
-2.880000e+04 5.000000e+02 0.0
[...]
POINT_DATA 1001
VECTORS displacement double
1.589971e-01 -2.193202e-03 0.0
1.593221e-01 -2.206768e-03 0.0
1.547720e-01 -2.017098e-03 0.0
1.550971e-01 -2.030612e-03 0.0
1.505462e-01 -1.842578e-03 0.0
1.508713e-01 -1.855895e-03 0.0
1.463191e-01 -1.672231e-03 0.0
1.466443e-01 -1.685109e-03 0.0
1.420905e-01 -1.509565e-03 0.0
1.424159e-01 -1.521720e-03 0.0
1.378606e-01 -1.358310e-03 0.0
1.381860e-01 -1.369458e-03 0.0
1.336295e-01 -1.221902e-03 0.0
1.339550e-01 -1.231801e-03 0.0
1.293975e-01 -1.102938e-03 0.0
1.297231e-01 -1.111429e-03 0.0
1.251650e-01 -1.003044e-03 0.0
1.254906e-01 -1.010021e-03 0.0
1.209321e-01 -9.234020e-04 0.0
1.212578e-01 -9.287883e-04 0.0
1.166989e-01 -8.649257e-04 0.0
1.170246e-01 -8.686540e-04 0.0
1.121400e-01 -8.262872e-04 0.0
1.124656e-01 -8.282137e-04 0.0
1.079074e-01 -8.123612e-04 0.0
1.082329e-01 -8.127288e-04 0.0
1.036762e-01 -8.168945e-04 0.0
1.040016e-01 -8.159911e-04 0.0
9.912219e-02 -8.366382e-04 0.0
9.944738e-02 -8.348843e-04 0.0
9.489628e-02 -8.614853e-04 0.0
9.522125e-02 -8.595265e-04 0.0
9.067289e-02 -8.852057e-04 0.0
9.099769e-02 -8.835675e-04 0.0
8.612653e-02 -9.029402e-04 0.0
8.645123e-02 -9.020401e-04 0.0
8.158098e-02 -9.087976e-04 0.0
8.190566e-02 -9.088042e-04 0.0
7.736002e-02 -9.029164e-04 0.0
7.768472e-02 -9.037396e-04 0.0
7.281381e-02 -8.854448e-04 0.0
7.313856e-02 -8.870393e-04 0.0
6.826672e-02 -8.583758e-04 0.0
6.859155e-02 -8.605706e-04 0.0
6.404319e-02 -8.273236e-04 0.0
6.436813e-02 -8.298329e-04 0.0
5.949298e-02 -7.919232e-04 0.0
5.981806e-02 -7.944058e-04 0.0
5.494093e-02 -7.598732e-04 0.0
5.526613e-02 -7.619421e-04 0.0
5.038771e-02 -7.356942e-04 0.0
5.071296e-02 -7.371019e-04 0.0
4.583436e-02 -7.213164e-04 0.0
4.615958e-02 -7.220263e-04 0.0
4.095683e-02 -7.153432e-04 0.0
4.128195e-02 -7.155194e-04 0.0
3.640595e-02 -7.146396e-04 0.0
3.673097e-02 -7.146240e-04 0.0
3.185637e-02 -7.146314e-04 0.0
3.218130e-02 -7.146851e-04 0.0
2.730775e-02 -7.120224e-04 0.0
2.763263e-02 -7.123451e-04 0.0
2.243445e-02 -7.044360e-04 0.0
2.275935e-02 -7.050935e-04 0.0
1.788552e-02 -6.935945e-04 0.0
1.821046e-02 -6.944464e-04 0.0
1.301081e-02 -6.802647e-04 0.0
1.333583e-02 -6.811506e-04 0.0
8.135112e-03 -6.683084e-04 0.0
8.460177e-03 -6.690002e-04 0.0
3.259211e-03 -6.599806e-04 0.0
3.584258e-03 -6.604252e-04 0.0
-1.291055e-03 -6.548581e-04 0.0
-9.660654e-04 -6.551817e-04 0.0
-6.165370e-03 -6.496688e-04 0.0
-5.840443e-03 -6.500628e-04 0.0
-1.136385e-02 -6.415531e-04 0.0
-1.103896e-02 -6.421793e-04 0.0
-1.623728e-02 -6.301357e-04 0.0
-1.591237e-02 -6.310065e-04 0.0
-2.111111e-02 -6.157518e-04 0.0
-2.078617e-02 -6.167704e-04 0.0
-2.631027e-02 -5.988300e-04 0.0
-2.598532e-02 -5.999121e-04 0.0
-3.118464e-02 -5.824133e-04 0.0
-3.085968e-02 -5.835155e-04 0.0
-3.638392e-02 -5.645487e-04 0.0
-3.605896e-02 -5.656825e-04 0.0
-4.158319e-02 -5.460672e-04 0.0
-4.125823e-02 -5.472335e-04 0.0
-4.678276e-02 -5.276213e-04 0.0
-4.645778e-02 -5.287526e-04 0.0
-5.198242e-02 -5.101062e-04 0.0
-5.165745e-02 -5.111707e-04 0.0
-5.718165e-02 -4.931543e-04 0.0
-5.685672e-02 -4.942334e-04 0.0
-6.270499e-02 -4.732664e-04 0.0
-6.238011e-02 -4.745436e-04 0.0
-6.790304e-02 -4.505346e-04 0.0
-6.757816e-02 -4.520841e-04 0.0
-7.342629e-02 -4.220167e-04 0.0
-7.310138e-02 -4.237864e-04 0.0
-7.895023e-02 -3.910234e-04 0.0
-7.862527e-02 -3.928715e-04 0.0
-8.447482e-02 -3.599418e-04 0.0
-8.414983e-02 -3.617384e-04 0.0
-9.032497e-02 -3.289780e-04 0.0
-8.999994e-02 -3.306124e-04 0.0
-9.585095e-02 -3.037653e-04 0.0
-9.552587e-02 -3.050819e-04 0.0
-1.017032e-01 -2.851839e-04 0.0
-1.013781e-01 -2.859164e-04 0.0
-1.078822e-01 -2.800639e-04 0.0
-1.075569e-01 -2.798711e-04 0.0
-1.137371e-01 -2.938779e-04 0.0
-1.134118e-01 -2.925613e-04 0.0
-1.199186e-01 -3.327514e-04 0.0
-1.195932e-01 -3.300112e-04 0.0
-1.225215e-01 -3.576138e-04 0.0
-1.221962e-01 -3.542166e-04 0.0
-1.228469e-01 -3.610946e-04 0.0
-1.231723e-01 -3.646592e-04 0.0
-1.234977e-01 -3.683074e-04 0.0
-1.238231e-01 -3.720397e-04 0.0
-1.244739e-01 -3.797599e-04 0.0
-1.247993e-01 -3.837483e-04 0.0
-1.251246e-01 -3.878223e-04 0.0
-1.254500e-01 -3.919819e-04 0.0
-1.257754e-01 -3.962267e-04 0.0
-1.261008e-01 -4.005576e-04 0.0
-1.270770e-01 -4.140744e-04 0.0
-1.267516e-01 -4.094817e-04 0.0
-1.274024e-01 -4.187537e-04 0.0
-1.277278e-01 -4.235201e-04 0.0
-1.280532e-01 -4.283734e-04 0.0
-1.283786e-01 -4.333143e-04 0.0
-1.290294e-01 -4.434585e-04 0.0
-1.293548e-01 -4.486610e-04 0.0
-1.296802e-01 -4.539500e-04 0.0
-1.300056e-01 -4.593247e-04 0.0
-1.303310e-01 -4.647849e-04 0.0
-1.306564e-01 -4.703305e-04 0.0
-1.309817e-01 -4.759612e-04 0.0
-1.319579e-01 -4.933543e-04 0.0
-1.316325e-01 -4.874743e-04 0.0
-1.322832e-01 -4.993153e-04 0.0
-1.326086e-01 -5.053581e-04 0.0
-1.329340e-01 -5.114821e-04 0.0
-1.332593e-01 -5.176856e-04 0.0
-1.335847e-01 -5.239671e-04 0.0
-1.339100e-01 -5.303255e-04 0.0
-1.345607e-01 -5.432724e-04 0.0
-1.348861e-01 -5.498595e-04 0.0
-1.352114e-01 -5.565207e-04 0.0
-1.355367e-01 -5.632543e-04 0.0
-1.358620e-01 -5.700595e-04 0.0
-1.361874e-01 -5.769354e-04 0.0
-1.365127e-01 -5.838811e-04 0.0
-1.368380e-01 -5.908951e-04 0.0
-1.371633e-01 -5.979760e-04 0.0
-1.378139e-01 -6.123339e-04 0.0
-1.381391e-01 -6.196079e-04 0.0
-1.384644e-01 -6.269438e-04 0.0
-1.387897e-01 -6.343407e-04 0.0
-1.391149e-01 -6.417973e-04 0.0
-1.394402e-01 -6.493123e-04 0.0
-1.397655e-01 -6.568849e-04 0.0
-1.400907e-01 -6.645137e-04 0.0
-1.404159e-01 -6.721973e-04 0.0
-1.410664e-01 -6.877250e-04 0.0
-1.413916e-01 -6.955673e-04 0.0
-1.417168e-01 -7.034599e-04 0.0
-1.420421e-01 -7.114015e-04 0.0
-1.423673e-01 -7.193911e-04 0.0
-1.426925e-01 -7.274267e-04 0.0
-1.430177e-01 -7.355075e-04 0.0
-1.433428e-01 -7.436328e-04 0.0
-1.436680e-01 -7.518006e-04 0.0
-1.439932e-01 -7.600086e-04 0.0
-1.443183e-01 -7.682555e-04 0.0
-1.446435e-01 -7.765407e-04 0.0
-1.456189e-01 -8.016091e-04 0.0
-1.452938e-01 -7.932196e-04 0.0
-1.459441e-01 -8.100308e-04 0.0
-1.462692e-01 -8.184829e-04 0.0
-1.465943e-01 -8.269634e-04 0.0
-1.469194e-01 -8.354709e-04 0.0
-1.472445e-01 -8.440042e-04 0.0
-1.475696e-01 -8.525619e-04 0.0
-1.478947e-01 -8.611426e-04 0.0
-1.482198e-01 -8.697445e-04 0.0
-1.485448e-01 -8.783663e-04 0.0
-1.488699e-01 -8.870067e-04 0.0
-1.491950e-01 -8.956642e-04 0.0
-1.495200e-01 -9.043384e-04 0.0
-1.498451e-01 -9.130283e-04 0.0
-1.508202e-01 -9.391797e-04 0.0
-1.504952e-01 -9.304497e-04 0.0
-1.511453e-01 -9.479221e-04 0.0
-1.514703e-01 -9.566760e-04 0.0
-1.517953e-01 -9.654412e-04 0.0
-1.521203e-01 -9.742165e-04 0.0
-1.524454e-01 -9.830015e-04 0.0
-1.527704e-01 -9.917952e-04 0.0
-1.530954e-01 -1.000598e-03 0.0
-1.534204e-01 -1.009410e-03 0.0
-1.537454e-01 -1.018230e-03 0.0
-1.540705e-01 -1.027058e-03 0.0
-1.543955e-01 -1.035892e-03 0.0
-1.547205e-01 -1.044734e-03 0.0
-1.550455e-01 -1.053580e-03 0.0
-1.553705e-01 -1.062432e-03 0.0
-1.556955e-01 -1.071289e-03 0.0
-1.560205e-01 -1.080150e-03 0.0
-1.563455e-01 -1.089013e-03 0.0
-1.566705e-01 -1.097879e-03 0.0
-1.569955e-01 -1.106748e-03 0.0
-1.573204e-01 -1.115618e-03 0.0
-1.576454e-01 -1.124489e-03 0.0
-1.579704e-01 -1.133361e-03 0.0
-1.582954e-01 -1.142235e-03 0.0
-1.586204e-01 -1.151108e-03 0.0
-1.589454e-01 -1.159982e-03 0.0
-1.592703e-01 -1.168854e-03 0.0
-1.595953e-01 -1.177726e-03 0.0
-1.599203e-01 -1.186598e-03 0.0
-1.602453e-01 -1.195470e-03 0.0
-1.605703e-01 -1.204341e-03 0.0
-1.608952e-01 -1.213212e-03 0.0
-1.612202e-01 -1.222083e-03 0.0
-1.615452e-01 -1.230953e-03 0.0
-1.618702e-01 -1.239824e-03 0.0
-1.621951e-01 -1.248694e-03 0.0
-1.628451e-01 -1.266435e-03 0.0
-1.625201e-01 -1.257564e-03 0.0
-1.501701e-01 -9.217324e-04 0.0
-1.449687e-01 -7.848630e-04 0.0
-1.407412e-01 -6.799347e-04 0.0
-1.374886e-01 -6.051227e-04 0.0
-1.342354e-01 -5.367607e-04 0.0
-1.313071e-01 -4.816760e-04 0.0
-1.287040e-01 -4.383428e-04 0.0
-1.264262e-01 -4.049761e-04 0.0
-1.241485e-01 -3.758571e-04 0.0
-1.218708e-01 -3.509029e-04 0.0
-1.215454e-01 -3.476722e-04 0.0
-1.212200e-01 -3.445242e-04 0.0
-1.208947e-01 -3.414586e-04 0.0
-1.205693e-01 -3.384748e-04 0.0
-1.202439e-01 -3.355724e-04 0.0
-1.192678e-01 -3.273514e-04 0.0
-1.189425e-01 -3.247718e-04 0.0
-1.186171e-01 -3.222717e-04 0.0
-1.182918e-01 -3.198503e-04 0.0
-1.179664e-01 -3.175066e-04 0.0
-1.176411e-01 -3.152406e-04 0.0
-1.173157e-01 -3.130525e-04 0.0
-1.169904e-01 -3.109414e-04 0.0
-1.166650e-01 -3.089058e-04 0.0
-1.163397e-01 -3.069446e-04 0.0
-1.160144e-01 -3.050577e-04 0.0
-1.156890e-01 -3.032450e-04 0.0
-1.153637e-01 -3.015054e-04 0.0
-1.150384e-01 -2.998379e-04 0.0
-1.147131e-01 -2.982418e-04 0.0
-1.143878e-01 -2.967170e-04 0.0
-1.140625e-01 -2.952627e-04 0.0
-1.130865e-01 -2.913125e-04 0.0
-1.127612e-01 -2.901313e-04 0.0
-1.124360e-01 -2.890170e-04 0.0
-1.121107e-01 -2.879689e-04 0.0
-1.117854e-01 -2.869862e-04 0.0
-1.114601e-01 -2.860686e-04 0.0
-1.111348e-01 -2.852153e-04 0.0
-1.108095e-01 -2.844256e-04 0.0
-1.104843e-01 -2.836986e-04 0.0
-1.101590e-01 -2.830339e-04 0.0
-1.098337e-01 -2.824308e-04 0.0
-1.095085e-01 -2.818884e-04 0.0
-1.091832e-01 -2.814062e-04 0.0
-1.088579e-01 -2.809836e-04 0.0
-1.085327e-01 -2.806195e-04 0.0
-1.082074e-01 -2.803131e-04 0.0
-1.072317e-01 -2.797341e-04 0.0
-1.069065e-01 -2.796521e-04 0.0
-1.065812e-01 -2.796239e-04 0.0
-1.062560e-01 -2.796490e-04 0.0
-1.059308e-01 -2.797266e-04 0.0
-1.056056e-01 -2.798560e-04 0.0
-1.052804e-01 -2.800367e-04 0.0
-1.049551e-01 -2.802682e-04 0.0
-1.046299e-01 -2.805497e-04 0.0
-1.043047e-01 -2.808801e-04 0.0
-1.039795e-01 -2.812584e-04 0.0
-1.036543e-01 -2.816838e-04 0.0
-1.033291e-01 -2.821559e-04 0.0
-1.030040e-01 -2.826737e-04 0.0
-1.026788e-01 -2.832363e-04 0.0
-1.023536e-01 -2.838428e-04 0.0
-1.020284e-01 -2.844923e-04 0.0
-1.010529e-01 -2.866889e-04 0.0
-1.007278e-01 -2.875008e-04 0.0
-1.004026e-01 -2.883513e-04 0.0
-1.000775e-01 -2.892391e-04 0.0
-9.975232e-02 -2.901629e-04 0.0
-9.942719e-02 -2.911219e-04 0.0
-9.910205e-02 -2.921158e-04 0.0
-9.877692e-02 -2.931438e-04 0.0
-9.845180e-02 -2.942046e-04 0.0
-9.812668e-02 -2.952970e-04 0.0
-9.780156e-02 -2.964202e-04 0.0
-9.747645e-02 -2.975738e-04 0.0
-9.715134e-02 -2.987572e-04 0.0
-9.682624e-02 -2.999694e-04 0.0
-9.650114e-02 -3.012087e-04 0.0
-9.617605e-02 -3.024742e-04 0.0
-9.520078e-02 -3.064230e-04 0.0
-9.487570e-02 -3.077877e-04 0.0
-9.455063e-02 -3.091754e-04 0.0
-9.422556e-02 -3.105854e-04 0.0
-9.390049e-02 -3.120170e-04 0.0
-9.357542e-02 -3.134691e-04 0.0
-9.325036e-02 -3.149412e-04 0.0
-9.292530e-02 -3.164327e-04 0.0
-9.260025e-02 -3.179432e-04 0.0
-9.227520e-02 -3.194716e-04 0.0
-9.195015e-02 -3.210169e-04 0.0
-9.162511e-02 -3.225787e-04 0.0
-9.130007e-02 -3.241564e-04 0.0
-9.097503e-02 -3.257493e-04 0.0
-9.065000e-02 -3.273567e-04 0.0
-8.967492e-02 -3.322590e-04 0.0
-8.934989e-02 -3.339173e-04 0.0
-8.902487e-02 -3.355872e-04 0.0
-8.869986e-02 -3.372680e-04 0.0
-8.837484e-02 -3.389591e-04 0.0
-8.804983e-02 -3.406602e-04 0.0
-8.772482e-02 -3.423711e-04 0.0
-8.739981e-02 -3.440915e-04 0.0
-8.707481e-02 -3.458206e-04 0.0
-8.674980e-02 -3.475586e-04 0.0
-8.642480e-02 -3.493051e-04 0.0
-8.609980e-02 -3.510595e-04 0.0
-8.577480e-02 -3.528213e-04 0.0
-8.544980e-02 -3.545904e-04 0.0
-8.512480e-02 -3.563669e-04 0.0
-8.479981e-02 -3.581510e-04 0.0
-8.382484e-02 -3.635401e-04 0.0
-8.349985e-02 -3.653470e-04 0.0
-8.317487e-02 -3.671590e-04 0.0
-8.284988e-02 -3.689761e-04 0.0
-8.252490e-02 -3.707980e-04 0.0
-8.219992e-02 -3.726240e-04 0.0
-8.187495e-02 -3.744531e-04 0.0
-8.154997e-02 -3.762849e-04 0.0
-8.122500e-02 -3.781200e-04 0.0
-8.090002e-02 -3.799583e-04 0.0
-8.057505e-02 -3.817993e-04 0.0
-8.025009e-02 -3.836420e-04 0.0
-7.992512e-02 -3.854858e-04 0.0
-7.960016e-02 -3.873305e-04 0.0
-7.927519e-02 -3.891761e-04 0.0
-7.830032e-02 -3.947193e-04 0.0
-7.797537e-02 -3.965653e-04 0.0
-7.765042e-02 -3.984092e-04 0.0
-7.732547e-02 -4.002513e-04 0.0
-7.700052e-02 -4.020916e-04 0.0
-7.667558e-02 -4.039294e-04 0.0
-7.635064e-02 -4.057634e-04 0.0
-7.602570e-02 -4.075928e-04 0.0
-7.570077e-02 -4.094171e-04 0.0
-7.537583e-02 -4.112363e-04 0.0
-7.505090e-02 -4.130503e-04 0.0
-7.472598e-02 -4.148587e-04 0.0
-7.440105e-02 -4.166602e-04 0.0
-7.407613e-02 -4.184537e-04 0.0
-7.375121e-02 -4.202390e-04 0.0
-7.277646e-02 -4.255475e-04 0.0
-7.245155e-02 -4.272986e-04 0.0
-7.212664e-02 -4.290391e-04 0.0
-7.180174e-02 -4.307689e-04 0.0
-7.147683e-02 -4.324879e-04 0.0
-7.115193e-02 -4.341958e-04 0.0
-7.082703e-02 -4.358922e-04 0.0
-7.050214e-02 -4.375759e-04 0.0
-7.017724e-02 -4.392459e-04 0.0
-6.985235e-02 -4.409023e-04 0.0
-6.952746e-02 -4.425451e-04 0.0
-6.920257e-02 -4.441739e-04 0.0
-6.887768e-02 -4.457878e-04 0.0
-6.855280e-02 -4.473861e-04 0.0
-6.822792e-02 -4.489685e-04 0.0
-6.725328e-02 -4.536169e-04 0.0
-6.692840e-02 -4.551331e-04 0.0
-6.660352e-02 -4.566320e-04 0.0
-6.627865e-02 -4.581129e-04 0.0
-6.595377e-02 -4.595758e-04 0.0
-6.562889e-02 -4.610218e-04 0.0
-6.530402e-02 -4.624512e-04 0.0
-6.497914e-02 -4.638633e-04 0.0
-6.465427e-02 -4.652571e-04 0.0
-6.432939e-02 -4.666332e-04 0.0
-6.400451e-02 -4.679927e-04 0.0
-6.367963e-02 -4.693361e-04 0.0
-6.335475e-02 -4.706629e-04 0.0
-6.302987e-02 -4.719730e-04 0.0
-6.205522e-02 -4.758049e-04 0.0
-6.173033e-02 -4.770510e-04 0.0
-6.140544e-02 -4.782824e-04 0.0
-6.108055e-02 -4.794993e-04 0.0
-6.075566e-02 -4.807017e-04 0.0
-6.043077e-02 -4.818901e-04 0.0
-6.010587e-02 -4.830652e-04 0.0
-5.978097e-02 -4.842278e-04 0.0
-5.945606e-02 -4.853787e-04 0.0
-5.913116e-02 -4.865187e-04 0.0
-5.880625e-02 -4.876480e-04 0.0
-5.848133e-02 -4.887669e-04 0.0
-5.815642e-02 -4.898758e-04 0.0
-5.783150e-02 -4.909758e-04 0.0
-5.750658e-02 -4.920684e-04 0.0
-5.653179e-02 -4.953065e-04 0.0
-5.620685e-02 -4.963745e-04 0.0
-5.588192e-02 -4.974385e-04 0.0
-5.555697e-02 -4.984986e-04 0.0
-5.523203e-02 -4.995554e-04 0.0
-5.490708e-02 -5.006100e-04 0.0
-5.458213e-02 -5.016635e-04 0.0
-5.425717e-02 -5.027163e-04 0.0
-5.393222e-02 -5.037686e-04 0.0
-5.360726e-02 -5.048209e-04 0.0
-5.328229e-02 -5.058740e-04 0.0
-5.295733e-02 -5.069289e-04 0.0
-5.263236e-02 -5.079856e-04 0.0
-5.230739e-02 -5.090445e-04 0.0
-5.133247e-02 -5.122385e-04 0.0
-5.100750e-02 -5.133096e-04 0.0
-5.068252e-02 -5.143843e-04 0.0
-5.035754e-02 -5.154630e-04 0.0
-5.003256e-02 -5.165459e-04 0.0
-4.970758e-02 -5.176332e-04 0.0
-4.938260e-02 -5.187251e-04 0.0
-4.905762e-02 -5.198213e-04 0.0
-4.873264e-02 -5.209221e-04 0.0
-4.840766e-02 -5.220275e-04 0.0
-4.808268e-02 -5.231378e-04 0.0
-4.775770e-02 -5.242527e-04 0.0
-4.743272e-02 -5.253718e-04 0.0
-4.710774e-02 -5.264945e-04 0.0
-4.613280e-02 -5.298882e-04 0.0
-4.580782e-02 -5.310273e-04 0.0
-4.548284e-02 -5.321696e-04 0.0
-4.515787e-02 -5.333148e-04 0.0
-4.483289e-02 -5.344628e-04 0.0
-4.450792e-02 -5.356139e-04 0.0
-4.418294e-02 -5.367679e-04 0.0
-4.385797e-02 -5.379247e-04 0.0
-4.353300e-02 -5.390833e-04 0.0
-4.320803e-02 -5.402435e-04 0.0
-4.288306e-02 -5.414053e-04 0.0
-4.255809e-02 -5.425691e-04 0.0
-4.223312e-02 -5.437345e-04 0.0
-4.190816e-02 -5.449008e-04 0.0
-4.093327e-02 -5.483997e-04 0.0
-4.060831e-02 -5.495657e-04 0.0
-4.028335e-02 -5.507311e-04 0.0
-3.995839e-02 -5.518953e-04 0.0
-3.963344e-02 -5.530575e-04 0.0
-3.930848e-02 -5.542174e-04 0.0
-3.898353e-02 -5.553753e-04 0.0
-3.865858e-02 -5.565315e-04 0.0
-3.833362e-02 -5.576857e-04 0.0
-3.800867e-02 -5.588371e-04 0.0
-3.768372e-02 -5.599852e-04 0.0
-3.735877e-02 -5.611302e-04 0.0
-3.703382e-02 -5.622724e-04 0.0
-3.670887e-02 -5.634120e-04 0.0
-3.573401e-02 -5.668134e-04 0.0
-3.540906e-02 -5.679414e-04 0.0
-3.508411e-02 -5.690669e-04 0.0
-3.475916e-02 -5.701900e-04 0.0
-3.443420e-02 -5.713107e-04 0.0
-3.410925e-02 -5.724292e-04 0.0
-3.378430e-02 -5.735454e-04 0.0
-3.345934e-02 -5.746595e-04 0.0
-3.313438e-02 -5.757717e-04 0.0
-3.280943e-02 -5.768823e-04 0.0
-3.248447e-02 -5.779915e-04 0.0
-3.215952e-02 -5.790992e-04 0.0
-3.183456e-02 -5.802054e-04 0.0
-3.150960e-02 -5.813100e-04 0.0
-3.053472e-02 -5.846172e-04 0.0
-3.020976e-02 -5.857182e-04 0.0
-2.988481e-02 -5.868180e-04 0.0
-2.955985e-02 -5.879163e-04 0.0
-2.923489e-02 -5.890135e-04 0.0
-2.890993e-02 -5.901098e-04 0.0
-2.858497e-02 -5.912052e-04 0.0
-2.826001e-02 -5.922993e-04 0.0
-2.793505e-02 -5.933917e-04 0.0
-2.761010e-02 -5.944828e-04 0.0
-2.728514e-02 -5.955725e-04 0.0
-2.696018e-02 -5.966603e-04 0.0
-2.663523e-02 -5.977462e-04 0.0
-2.566036e-02 -6.009923e-04 0.0
-2.533541e-02 -6.020698e-04 0.0
-2.501046e-02 -6.031444e-04 0.0
-2.468550e-02 -6.042158e-04 0.0
-2.436055e-02 -6.052844e-04 0.0
-2.403560e-02 -6.063501e-04 0.0
-2.371065e-02 -6.074126e-04 0.0
-2.338571e-02 -6.084712e-04 0.0
-2.306076e-02 -6.095252e-04 0.0
-2.273581e-02 -6.105748e-04 0.0
-2.241087e-02 -6.116203e-04 0.0
-2.208593e-02 -6.126614e-04 0.0
-2.176099e-02 -6.136973e-04 0.0
-2.143605e-02 -6.147274e-04 0.0
-2.046124e-02 -6.177825e-04 0.0
-2.013630e-02 -6.187871e-04 0.0
-1.981137e-02 -6.197840e-04 0.0
-1.948644e-02 -6.207735e-04 0.0
-1.916152e-02 -6.217556e-04 0.0
-1.883659e-02 -6.227291e-04 0.0
-1.851167e-02 -6.236929e-04 0.0
-1.818675e-02 -6.246466e-04 0.0
-1.786183e-02 -6.255902e-04 0.0
-1.753692e-02 -6.265234e-04 0.0
-1.721200e-02 -6.274452e-04 0.0
-1.688709e-02 -6.283549e-04 0.0
-1.656218e-02 -6.292517e-04 0.0
-1.558747e-02 -6.318634e-04 0.0
-1.526257e-02 -6.327052e-04 0.0
-1.493767e-02 -6.335317e-04 0.0
-1.461277e-02 -6.343431e-04 0.0
-1.428788e-02 -6.351394e-04 0.0
-1.396298e-02 -6.359200e-04 0.0
-1.363809e-02 -6.366839e-04 0.0
-1.331319e-02 -6.374306e-04 0.0
-1.298830e-02 -6.381605e-04 0.0
-1.266341e-02 -6.388739e-04 0.0
-1.233852e-02 -6.395702e-04 0.0
-1.201363e-02 -6.402489e-04 0.0
-1.168874e-02 -6.409098e-04 0.0
-1.071406e-02 -6.427876e-04 0.0
-1.038917e-02 -6.433783e-04 0.0
-1.006428e-02 -6.439520e-04 0.0
-9.739379e-03 -6.445095e-04 0.0
-9.414481e-03 -6.450509e-04 0.0
-9.089581e-03 -6.455764e-04 0.0
-8.764679e-03 -6.460863e-04 0.0
-8.439775e-03 -6.465813e-04 0.0
-8.114868e-03 -6.470620e-04 0.0
-7.789959e-03 -6.475286e-04 0.0
-7.465047e-03 -6.479816e-04 0.0
-7.140132e-03 -6.484214e-04 0.0
-6.815215e-03 -6.488487e-04 0.0
-6.490294e-03 -6.492644e-04 0.0
-5.515512e-03 -6.504466e-04 0.0
-5.190578e-03 -6.508210e-04 0.0
-4.865640e-03 -6.511868e-04 0.0
-4.540699e-03 -6.515445e-04 0.0
-4.215754e-03 -6.518948e-04 0.0
-3.890804e-03 -6.522387e-04 0.0
-3.565851e-03 -6.525772e-04 0.0
-3.240893e-03 -6.529109e-04 0.0
-2.915932e-03 -6.532403e-04 0.0
-2.590966e-03 -6.535662e-04 0.0
-2.265995e-03 -6.538900e-04 0.0
-1.941019e-03 -6.542132e-04 0.0
-1.616040e-03 -6.545359e-04 0.0
-6.410706e-04 -6.555080e-04 0.0
-3.160712e-04 -6.558383e-04 0.0
8.932715e-06 -6.561730e-04 0.0
3.339415e-04 -6.565129e-04 0.0
6.589551e-04 -6.568595e-04 0.0
9.839730e-04 -6.572143e-04 0.0
1.308995e-03 -6.575777e-04 0.0
1.634021e-03 -6.579501e-04 0.0
1.959052e-03 -6.583323e-04 0.0
2.284087e-03 -6.587257e-04 0.0
2.609125e-03 -6.591314e-04 0.0
2.934166e-03 -6.595495e-04 0.0
3.909308e-03 -6.608839e-04 0.0
4.234361e-03 -6.613571e-04 0.0
4.559415e-03 -6.618454e-04 0.0
4.884472e-03 -6.623494e-04 0.0
5.209531e-03 -6.628694e-04 0.0
5.534591e-03 -6.634053e-04 0.0
5.859653e-03 -6.639574e-04 0.0
6.184717e-03 -6.645264e-04 0.0
6.509782e-03 -6.651129e-04 0.0
6.834847e-03 -6.657167e-04 0.0
7.159913e-03 -6.663379e-04 0.0
7.484980e-03 -6.669768e-04 0.0
7.810046e-03 -6.676336e-04 0.0
8.785240e-03 -6.697089e-04 0.0
9.110303e-03 -6.704346e-04 0.0
9.435364e-03 -6.711774e-04 0.0
9.760422e-03 -6.719368e-04 0.0
1.008548e-02 -6.727118e-04 0.0
1.041053e-02 -6.735016e-04 0.0
1.073558e-02 -6.743059e-04 0.0
1.106063e-02 -6.751242e-04 0.0
1.138567e-02 -6.759552e-04 0.0
1.171071e-02 -6.767975e-04 0.0
1.203574e-02 -6.776504e-04 0.0
1.236077e-02 -6.785131e-04 0.0
1.268579e-02 -6.793850e-04 0.0
1.366084e-02 -6.820420e-04 0.0
1.398584e-02 -6.829377e-04 0.0
1.431084e-02 -6.838364e-04 0.0
1.463583e-02 -6.847366e-04 0.0
1.496082e-02 -6.856370e-04 0.0
1.528581e-02 -6.865367e-04 0.0
1.561079e-02 -6.874347e-04 0.0
1.593576e-02 -6.883300e-04 0.0
1.626073e-02 -6.892215e-04 0.0
1.658569e-02 -6.901084e-04 0.0
1.691066e-02 -6.909902e-04 0.0
1.723561e-02 -6.918659e-04 0.0
1.756057e-02 -6.927343e-04 0.0
1.853541e-02 -6.952892e-04 0.0
1.886035e-02 -6.961227e-04 0.0
1.918528e-02 -6.969459e-04 0.0
1.951021e-02 -6.977579e-04 0.0
1.983514e-02 -6.985580e-04 0.0