# vtk DataFile Version 2.0
Simplicial Mesh Example
ASCII
DATASET UNSTRUCTURED_GRID
POINTS 1001 double
4.900000e+04 5.000000e+02 0.0
4.910000e+04 5.000000e+02 0.0
4.770000e+04 5.000000e+02 0.0
4.780000e+04 5.000000e+02 0.0
4.640000e+04 5.000000e+02 0.0
4.650000e+04 5.000000e+02 0.0
4.510000e+04 5.000000e+02 0.0
4.520000e+04 5.000000e+02 0.0
4.380000e+04 5.000000e+02 0.0
4.390000e+04 5.000000e+02 0.0
4.250000e+04 5.000000e+02 0.0
4.260000e+04 5.000000e+02 0.0
4.120000e+04 5.000000e+02 0.0
4.130000e+04 5.000000e+02 0.0
3.990000e+04 5.000000e+02 0.0
4.000000e+04 5.000000e+02 0.0
3.860000e+04 5.000000e+02 0.0
3.870000e+04 5.000000e+02 0.0
3.730000e+04 5.000000e+02 0.0
3.740000e+04 5.000000e+02 0.0
3.600000e+04 5.000000e+02 0.0
3.610000e+04 5.000000e+02 0.0
3.460000e+04 5.000000e+02 0.0
3.470000e+04 5.000000e+02 0.0
3.330000e+04 5.000000e+02 0.0
3.340000e+04 5.000000e+02 0.0
3.200000e+04 5.000000e+02 0.0
3.210000e+04 5.000000e+02 0.0
3.060000e+04 5.000000e+02 0.0
3.070000e+04 5.000000e+02 0.0
2.930000e+04 5.000000e+02 0.0
2.940000e+04 5.000000e+02 0.0
2.800000e+04 5.000000e+02 0.0
2.810000e+04 5.000000e+02 0.0
2.660000e+04 5.000000e+02 0.0
2.670000e+04 5.000000e+02 0.0
2.520000e+04 5.000000e+02 0.0
2.530000e+04 5.000000e+02 0.0
2.390000e+04 5.000000e+02 0.0
2.400000e+04 5.000000e+02 0.0
2.250000e+04 5.000000e+02 0.0
2.260000e+04 5.000000e+02 0.0
2.110000e+04 5.000000e+02 0.0
2.120000e+04 5.000000e+02 0.0
1.980000e+04 5.000000e+02 0.0
1.990000e+04 5.000000e+02 0.0
1.840000e+04 5.000000e+02 0.0
1.850000e+04 5.000000e+02 0.0
1.700000e+04 5.000000e+02 0.0
1.710000e+04 5.000000e+02 0.0
1.560000e+04 5.000000e+02 0.0
1.570000e+04 5.000000e+02 0.0
1.420000e+04 5.000000e+02 0.0
1.430000e+04 5.000000e+02 0.0
1.270000e+04 5.000000e+02 0.0
1.280000e+04 5.000000e+02 0.0
1.130000e+04 5.000000e+02 0.0
1.140000e+04 5.000000e+02 0.0
9.900000e+03 5.000000e+02 0.0
1.000000e+04 5.000000e+02 0.0
8.500000e+03 5.000000e+02 0.0
8.600000e+03 5.000000e+02 0.0
7.000000e+03 5.000000e+02 0.0
7.100000e+03 5.000000e+02 0.0
5.600000e+03 5.000000e+02 0.0
5.700000e+03 5.000000e+02 0.0
4.100000e+03 5.000000e+02 0.0
4.200000e+03 5.000000e+02 0.0
2.600000e+03 5.000000e+02 0.0
2.700000e+03 5.000000e+02 0.0
1.100000e+03 5.000000e+02 0.0
1.200000e+03 5.000000e+02 0.0
-3.000000e+02 5.000000e+02 0.0
-2.000000e+02 5.000000e+02 0.0
-1.800000e+03 5.000000e+02 0.0
-1.700000e+03 5.000000e+02 0.0
-3.400000e+03 5.000000e+02 0.0
-3.300000e+03 5.000000e+02 0.0
-4.900000e+03 5.000000e+02 0.0
-4.800000e+03 5.000000e+02 0.0
-6.400000e+03 5.000000e+02 0.0
-6.300000e+03 5.000000e+02 0.0
-8.000000e+03 5.000000e+02 0.0
-7.900000e+03 5.000000e+02 0.0
-9.500000e+03 5.000000e+02 0.0
-9.400000e+03 5.000000e+02 0.0
-1.110000e+04 5.000000e+02 0.0
-1.100000e+04 5.000000e+02 0.0
-1.270000e+04 5.000000e+02 0.0
-1.260000e+04 5.000000e+02 0.0
-1.430000e+04 5.000000e+02 0.0
-1.420000e+04 5.000000e+02 0.0
-1.590000e+04 5.000000e+02 0.0
-1.580000e+04 5.000000e+02 0.0
-1.750000e+04 5.000000e+02 0.0
-1.740000e+04 5.000000e+02 0.0
-1.920000e+04 5.000000e+02 0.0
-1.910000e+04 5.000000e+02 0.0
-2.080000e+04 5.000000e+02 0.0
-2.070000e+04 5.000000e+02 0.0
-2.250000e+04 5.000000e+02 0.0
-2.240000e+04 5.000000e+02 0.0
-2.420000e+04 5.000000e+02 0.0
-2.410000e+04 5.000000e+02 0.0
-2.590000e+04 5.000000e+02 0.0
-2.580000e+04 5.000000e+02 0.0
-2.770000e+04 5.000000e+02 0.0
-2.760000e+04 5.000000e+02 0.0
-2.940000e+04 5.000000e+02 0.0
-2.930000e+04 5.000000e+02 0.0
-3.120000e+04 5.000000e+02 0.0
-3.110000e+04 5.000000e+02 0.0
-3.310000e+04 5.000000e+02 0.0
-3.300000e+04 5.000000e+02 0.0
-3.490000e+04 5.000000e+02 0.0
-3.480000e+04 5.000000e+02 0.0
-3.680000e+04 5.000000e+02 0.0
-3.670000e+04 5.000000e+02 0.0
-3.760000e+04 5.000000e+02 0.0
-3.750000e+04 5.000000e+02 0.0
-3.770000e+04 5.000000e+02 0.0
-3.780000e+04 5.000000e+02 0.0
-3.790000e+04 5.000000e+02 0.0
-3.800000e+04 5.000000e+02 0.0
-3.820000e+04 5.000000e+02 0.0
-3.830000e+04 5.000000e+02 0.0
-3.840000e+04 5.000000e+02 0.0
-3.850000e+04 5.000000e+02 0.0
-3.860000e+04 5.000000e+02 0.0
-3.870000e+04 5.000000e+02 0.0
-3.900000e+04 5.000000e+02 0.0
-3.890000e+04 5.000000e+02 0.0
-3.910000e+04 5.000000e+02 0.0
-3.920000e+04 5.000000e+02 0.0
-3.930000e+04 5.000000e+02 0.0
-3.940000e+04 5.000000e+02 0.0
-3.960000e+04 5.000000e+02 0.0
-3.970000e+04 5.000000e+02 0.0
-3.980000e+04 5.000000e+02 0.0
-3.990000e+04 5.000000e+02 0.0
-4.000000e+04 5.000000e+02 0.0
-4.010000e+04 5.000000e+02 0.0
-4.020000e+04 5.000000e+02 0.0
-4.050000e+04 5.000000e+02 0.0
-4.040000e+04 5.000000e+02 0.0
-4.060000e+04 5.000000e+02 0.0
-4.070000e+04 5.000000e+02 0.0
-4.080000e+04 5.000000e+02 0.0
-4.090000e+04 5.000000e+02 0.0
-4.100000e+04 5.000000e+02 0.0
-4.110000e+04 5.000000e+02 0.0
-4.130000e+04 5.000000e+02 0.0
-4.140000e+04 5.000000e+02 0.0
-4.150000e+04 5.000000e+02 0.0
-4.160000e+04 5.000000e+02 0.0
-4.170000e+04 5.000000e+02 0.0
-4.180000e+04 5.000000e+02 0.0
-4.190000e+04 5.000000e+02 0.0
-4.200000e+04 5.000000e+02 0.0
-4.210000e+04 5.000000e+02 0.0
-4.230000e+04 5.000000e+02 0.0
-4.240000e+04 5.000000e+02 0.0
-4.250000e+04 5.000000e+02 0.0
-4.260000e+04 5.000000e+02 0.0
-4.270000e+04 5.000000e+02 0.0
-4.280000e+04 5.000000e+02 0.0
-4.290000e+04 5.000000e+02 0.0
-4.300000e+04 5.000000e+02 0.0
-4.310000e+04 5.000000e+02 0.0
-4.330000e+04 5.000000e+02 0.0
-4.340000e+04 5.000000e+02 0.0
-4.350000e+04 5.000000e+02 0.0
-4.360000e+04 5.000000e+02 0.0
-4.370000e+04 5.000000e+02 0.0
-4.380000e+04 5.000000e+02 0.0
-4.390000e+04 5.000000e+02 0.0
-4.400000e+04 5.000000e+02 0.0
-4.410000e+04 5.000000e+02 0.0
-4.420000e+04 5.000000e+02 0.0
-4.430000e+04 5.000000e+02 0.0
-4.440000e+04 5.000000e+02 0.0
-4.470000e+04 5.000000e+02 0.0
-4.460000e+04 5.000000e+02 0.0
-4.480000e+04 5.000000e+02 0.0
-4.490000e+04 5.000000e+02 0.0
-4.500000e+04 5.000000e+02 0.0
-4.510000e+04 5.000000e+02 0.0
-4.520000e+04 5.000000e+02 0.0
-4.530000e+04 5.000000e+02 0.0
-4.540000e+04 5.000000e+02 0.0
-4.550000e+04 5.000000e+02 0.0
-4.560000e+04 5.000000e+02 0.0
-4.570000e+04 5.000000e+02 0.0
-4.580000e+04 5.000000e+02 0.0
-4.590000e+04 5.000000e+02 0.0
-4.600000e+04 5.000000e+02 0.0
-4.630000e+04 5.000000e+02 0.0
-4.620000e+04 5.000000e+02 0.0
-4.640000e+04 5.000000e+02 0.0
-4.650000e+04 5.000000e+02 0.0
-4.660000e+04 5.000000e+02 0.0
-4.670000e+04 5.000000e+02 0.0
-4.680000e+04 5.000000e+02 0.0
-4.690000e+04 5.000000e+02 0.0
-4.700000e+04 5.000000e+02 0.0
-4.710000e+04 5.000000e+02 0.0
-4.720000e+04 5.000000e+02 0.0
-4.730000e+04 5.000000e+02 0.0
-4.740000e+04 5.000000e+02 0.0
-4.750000e+04 5.000000e+02 0.0
-4.760000e+04 5.000000e+02 0.0
-4.770000e+04 5.000000e+02 0.0
-4.780000e+04 5.000000e+02 0.0
-4.790000e+04 5.000000e+02 0.0
-4.800000e+04 5.000000e+02 0.0
-4.810000e+04 5.000000e+02 0.0
-4.820000e+04 5.000000e+02 0.0
-4.830000e+04 5.000000e+02 0.0
-4.840000e+04 5.000000e+02 0.0
-4.850000e+04 5.000000e+02 0.0
-4.860000e+04 5.000000e+02 0.0
-4.870000e+04 5.000000e+02 0.0
-4.880000e+04 5.000000e+02 0.0
-4.890000e+04 5.000000e+02 0.0
-4.900000e+04 5.000000e+02 0.0
-4.910000e+04 5.000000e+02 0.0
-4.920000e+04 5.000000e+02 0.0
-4.930000e+04 5.000000e+02 0.0
-4.940000e+04 5.000000e+02 0.0
-4.950000e+04 5.000000e+02 0.0
-4.960000e+04 5.000000e+02 0.0
-4.970000e+04 5.000000e+02 0.0
-4.980000e+04 5.000000e+02 0.0
-5.000000e+04 5.000000e+02 0.0
-4.990000e+04 5.000000e+02 0.0
-4.610000e+04 5.000000e+02 0.0
-4.450000e+04 5.000000e+02 0.0
-4.320000e+04 5.000000e+02 0.0
-4.220000e+04 5.000000e+02 0.0
-4.120000e+04 5.000000e+02 0.0
-4.030000e+04 5.000000e+02 0.0
-3.950000e+04 5.000000e+02 0.0
-3.880000e+04 5.000000e+02 0.0
-3.810000e+04 5.000000e+02 0.0
-3.740000e+04 5.000000e+02 0.0
-3.730000e+04 5.000000e+02 0.0
-3.720000e+04 5.000000e+02 0.0
-3.710000e+04 5.000000e+02 0.0
-3.700000e+04 5.000000e+02 0.0
-3.690000e+04 5.000000e+02 0.0
-3.660000e+04 5.000000e+02 0.0
-3.650000e+04 5.000000e+02 0.0
-3.640000e+04 5.000000e+02 0.0
-3.630000e+04 5.000000e+02 0.0
-3.620000e+04 5.000000e+02 0.0
-3.610000e+04 5.000000e+02 0.0
-3.600000e+04 5.000000e+02 0.0
-3.590000e+04 5.000000e+02 0.0
-3.580000e+04 5.000000e+02 0.0
-3.570000e+04 5.000000e+02 0.0
-3.560000e+04 5.000000e+02 0.0
-3.550000e+04 5.000000e+02 0.0
-3.540000e+04 5.000000e+02 0.0
-3.530000e+04 5.000000e+02 0.0
-3.520000e+04 5.000000e+02 0.0
-3.510000e+04 5.000000e+02 0.0
-3.500000e+04 5.000000e+02 0.0
-3.470000e+04 5.000000e+02 0.0
-3.460000e+04 5.000000e+02 0.0
-3.450000e+04 5.000000e+02 0.0
-3.440000e+04 5.000000e+02 0.0
-3.430000e+04 5.000000e+02 0.0
-3.420000e+04 5.000000e+02 0.0
-3.410000e+04 5.000000e+02 0.0
-3.400000e+04 5.000000e+02 0.0
-3.390000e+04 5.000000e+02 0.0
-3.380000e+04 5.000000e+02 0.0
-3.370000e+04 5.000000e+02 0.0
-3.360000e+04 5.000000e+02 0.0
-3.350000e+04 5.000000e+02 0.0
-3.340000e+04 5.000000e+02 0.0
-3.330000e+04 5.000000e+02 0.0
-3.320000e+04 5.000000e+02 0.0
-3.290000e+04 5.000000e+02 0.0
-3.280000e+04 5.000000e+02 0.0
-3.270000e+04 5.000000e+02 0.0
-3.260000e+04 5.000000e+02 0.0
-3.250000e+04 5.000000e+02 0.0
-3.240000e+04 5.000000e+02 0.0
-3.230000e+04 5.000000e+02 0.0
-3.220000e+04 5.000000e+02 0.0
-3.210000e+04 5.000000e+02 0.0
-3.200000e+04 5.000000e+02 0.0
-3.190000e+04 5.000000e+02 0.0
-3.180000e+04 5.000000e+02 0.0
-3.170000e+04 5.000000e+02 0.0
-3.160000e+04 5.000000e+02 0.0
-3.150000e+04 5.000000e+02 0.0
-3.140000e+04 5.000000e+02 0.0
-3.130000e+04 5.000000e+02 0.0
-3.100000e+04 5.000000e+02 0.0
-3.090000e+04 5.000000e+02 0.0
-3.080000e+04 5.000000e+02 0.0
-3.070000e+04 5.000000e+02 0.0
-3.060000e+04 5.000000e+02 0.0
-3.050000e+04 5.000000e+02 0.0
-3.040000e+04 5.000000e+02 0.0
-3.030000e+04 5.000000e+02 0.0
-3.020000e+04 5.000000e+02 0.0
-3.010000e+04 5.000000e+02 0.0
-3.000000e+04 5.000000e+02 0.0
-2.990000e+04 5.000000e+02 0.0
-2.980000e+04 5.000000e+02 0.0
-2.970000e+04 5.000000e+02 0.0
-2.960000e+04 5.000000e+02 0.0
-2.950000e+04 5.000000e+02 0.0
-2.920000e+04 5.000000e+02 0.0
-2.910000e+04 5.000000e+02 0.0
-2.900000e+04 5.000000e+02 0.0
-2.890000e+04 5.000000e+02 0.0
-2.880000e+04 5.000000e+02 0.0
[...]
POINT_DATA 1001
VECTORS displacement double
1.590011e-01 -2.217924e-03 0.0
1.593261e-01 -2.231970e-03 0.0
1.547761e-01 -2.035682e-03 0.0
1.551011e-01 -2.049674e-03 0.0
1.505505e-01 -1.854595e-03 0.0
1.508756e-01 -1.868440e-03 0.0
1.463237e-01 -1.676885e-03 0.0
1.466489e-01 -1.690365e-03 0.0
1.420955e-01 -1.505746e-03 0.0
1.424208e-01 -1.518604e-03 0.0
1.378657e-01 -1.344615e-03 0.0
1.381911e-01 -1.356566e-03 0.0
1.336340e-01 -1.197793e-03 0.0
1.339596e-01 -1.208460e-03 0.0
1.294004e-01 -1.070672e-03 0.0
1.297261e-01 -1.079626e-03 0.0
1.251653e-01 -9.683463e-04 0.0
1.254911e-01 -9.752509e-04 0.0
1.209298e-01 -8.936967e-04 0.0
1.212556e-01 -8.984369e-04 0.0
1.166946e-01 -8.467457e-04 0.0
1.170204e-01 -8.494109e-04 0.0
1.121351e-01 -8.244375e-04 0.0
1.124608e-01 -8.251667e-04 0.0
1.079034e-01 -8.249414e-04 0.0
1.082288e-01 -8.243252e-04 0.0
1.036742e-01 -8.392275e-04 0.0
1.039995e-01 -8.378042e-04 0.0
9.912261e-02 -8.619836e-04 0.0
9.944763e-02 -8.602686e-04 0.0
9.489831e-02 -8.835846e-04 0.0
9.522319e-02 -8.820206e-04 0.0
9.067539e-02 -9.012003e-04 0.0
9.100019e-02 -9.000513e-04 0.0
8.612842e-02 -9.128448e-04 0.0
8.645319e-02 -9.122971e-04 0.0
8.158202e-02 -9.152956e-04 0.0
8.190674e-02 -9.154665e-04 0.0
7.736109e-02 -9.073839e-04 0.0
7.768575e-02 -9.084023e-04 0.0
7.281585e-02 -8.852589e-04 0.0
7.314053e-02 -8.873297e-04 0.0
6.826912e-02 -8.499936e-04 0.0
6.859398e-02 -8.528165e-04 0.0
6.404440e-02 -8.120496e-04 0.0
6.436948e-02 -8.149532e-04 0.0
5.949185e-02 -7.748413e-04 0.0
5.981710e-02 -7.772023e-04 0.0
5.493774e-02 -7.481007e-04 0.0
5.526305e-02 -7.495911e-04 0.0
5.038369e-02 -7.337566e-04 0.0
5.070896e-02 -7.343979e-04 0.0
4.583106e-02 -7.294362e-04 0.0
4.615618e-02 -7.295250e-04 0.0
4.095562e-02 -7.294203e-04 0.0
4.128057e-02 -7.294314e-04 0.0
3.640697e-02 -7.273659e-04 0.0
3.673184e-02 -7.276732e-04 0.0
3.185886e-02 -7.201315e-04 0.0
3.218374e-02 -7.208193e-04 0.0
2.731010e-02 -7.087125e-04 0.0
2.763504e-02 -7.095980e-04 0.0
2.243538e-02 -6.952573e-04 0.0
2.276039e-02 -6.961226e-04 0.0
1.788491e-02 -6.842771e-04 0.0
1.820996e-02 -6.849745e-04 0.0
1.300918e-02 -6.755087e-04 0.0
1.333423e-02 -6.760049e-04 0.0
8.133700e-03 -6.691867e-04 0.0
8.458718e-03 -6.695693e-04 0.0
3.258642e-03 -6.638096e-04 0.0
3.583629e-03 -6.641598e-04 0.0
-1.290926e-03 -6.587947e-04 0.0
-9.659812e-04 -6.591739e-04 0.0
-6.164787e-03 -6.521041e-04 0.0
-5.839887e-03 -6.526250e-04 0.0
-1.136317e-02 -6.414945e-04 0.0
-1.103825e-02 -6.422677e-04 0.0
-1.623729e-02 -6.287717e-04 0.0
-1.591232e-02 -6.296542e-04 0.0
-2.111208e-02 -6.156907e-04 0.0
-2.078709e-02 -6.165537e-04 0.0
-2.631156e-02 -6.016812e-04 0.0
-2.598663e-02 -6.026050e-04 0.0
-3.118525e-02 -5.862358e-04 0.0
-3.086036e-02 -5.873821e-04 0.0
-3.638365e-02 -5.656955e-04 0.0
-3.605874e-02 -5.670772e-04 0.0
-4.158303e-02 -5.430078e-04 0.0
-4.125803e-02 -5.443953e-04 0.0
-4.678371e-02 -5.228505e-04 0.0
-4.645864e-02 -5.239600e-04 0.0
-5.198426e-02 -5.075790e-04 0.0
-5.165927e-02 -5.084477e-04 0.0
-5.718318e-02 -4.930220e-04 0.0
-5.685829e-02 -4.940386e-04 0.0
-6.270616e-02 -4.727326e-04 0.0
-6.238127e-02 -4.740779e-04 0.0
-6.790469e-02 -4.498036e-04 0.0
-6.757978e-02 -4.512878e-04 0.0
-7.342820e-02 -4.235972e-04 0.0
-7.310329e-02 -4.251887e-04 0.0
-7.895160e-02 -3.949020e-04 0.0
-7.862667e-02 -3.966591e-04 0.0
-8.447586e-02 -3.646838e-04 0.0
-8.415087e-02 -3.664504e-04 0.0
-9.032603e-02 -3.343814e-04 0.0
-9.000101e-02 -3.359898e-04 0.0
-9.585171e-02 -3.091502e-04 0.0
-9.552666e-02 -3.105117e-04 0.0
-1.017035e-01 -2.889689e-04 0.0
-1.013784e-01 -2.898198e-04 0.0
-1.078819e-01 -2.807946e-04 0.0
-1.075567e-01 -2.807716e-04 0.0
-1.137368e-01 -2.914694e-04 0.0
-1.134114e-01 -2.903219e-04 0.0
-1.199182e-01 -3.271683e-04 0.0
-1.195928e-01 -3.246162e-04 0.0
-1.225213e-01 -3.505312e-04 0.0
-1.221959e-01 -3.473179e-04 0.0
-1.228467e-01 -3.538297e-04 0.0
-1.231721e-01 -3.572145e-04 0.0
-1.234975e-01 -3.606869e-04 0.0
-1.238229e-01 -3.642481e-04 0.0
-1.244737e-01 -3.716366e-04 0.0
-1.247992e-01 -3.754652e-04 0.0
-1.251246e-01 -3.793840e-04 0.0
-1.254500e-01 -3.833930e-04 0.0
-1.257754e-01 -3.874927e-04 0.0
-1.261009e-01 -3.916849e-04 0.0
-1.270772e-01 -4.048181e-04 0.0
-1.267517e-01 -4.003481e-04 0.0
-1.274026e-01 -4.093808e-04 0.0
-1.277280e-01 -4.140385e-04 0.0
-1.280535e-01 -4.187911e-04 0.0
-1.283789e-01 -4.236378e-04 0.0
-1.290298e-01 -4.336144e-04 0.0
-1.293552e-01 -4.387446e-04 0.0
-1.296806e-01 -4.439686e-04 0.0
-1.300060e-01 -4.492852e-04 0.0
-1.303315e-01 -4.546949e-04 0.0
-1.306569e-01 -4.601973e-04 0.0
-1.309823e-01 -4.657919e-04 0.0
-1.319585e-01 -4.831243e-04 0.0
-1.316331e-01 -4.772561e-04 0.0
-1.322839e-01 -4.890822e-04 0.0
-1.326093e-01 -4.951292e-04 0.0
-1.329347e-01 -5.012652e-04 0.0
-1.332601e-01 -5.074904e-04 0.0
-1.335855e-01 -5.138036e-04 0.0
-1.339109e-01 -5.202028e-04 0.0
-1.345617e-01 -5.332569e-04 0.0
-1.348870e-01 -5.399119e-04 0.0
-1.352124e-01 -5.466500e-04 0.0
-1.355378e-01 -5.534692e-04 0.0
-1.358631e-01 -5.603690e-04 0.0
-1.361885e-01 -5.673496e-04 0.0
-1.365138e-01 -5.744095e-04 0.0
-1.368392e-01 -5.815471e-04 0.0
-1.371645e-01 -5.887617e-04 0.0
-1.378152e-01 -6.034187e-04 0.0
-1.381405e-01 -6.108582e-04 0.0
-1.384658e-01 -6.183701e-04 0.0
-1.387911e-01 -6.259539e-04 0.0
-1.391164e-01 -6.336073e-04 0.0
-1.394417e-01 -6.413283e-04 0.0
-1.397670e-01 -6.491157e-04 0.0
-1.400923e-01 -6.569695e-04 0.0
-1.404175e-01 -6.648874e-04 0.0
-1.410681e-01 -6.809060e-04 0.0
-1.413933e-01 -6.890066e-04 0.0
-1.417186e-01 -6.971669e-04 0.0
-1.420438e-01 -7.053844e-04 0.0
-1.423690e-01 -7.136576e-04 0.0
-1.426943e-01 -7.219862e-04 0.0
-1.430195e-01 -7.303694e-04 0.0
-1.433447e-01 -7.388050e-04 0.0
-1.436699e-01 -7.472900e-04 0.0
-1.439951e-01 -7.558228e-04 0.0
-1.443203e-01 -7.644018e-04 0.0
-1.446455e-01 -7.730254e-04 0.0
-1.456210e-01 -7.991453e-04 0.0
-1.452958e-01 -7.903984e-04 0.0
-1.459461e-01 -8.079312e-04 0.0
-1.462713e-01 -8.167546e-04 0.0
-1.465964e-01 -8.256147e-04 0.0
-1.469216e-01 -8.345107e-04 0.0
-1.472467e-01 -8.434421e-04 0.0
-1.475718e-01 -8.524068e-04 0.0
-1.478969e-01 -8.614021e-04 0.0
-1.482221e-01 -8.704263e-04 0.0
-1.485471e-01 -8.794773e-04 0.0
-1.488722e-01 -8.885515e-04 0.0
-1.491973e-01 -8.976458e-04 0.0
-1.495224e-01 -9.067583e-04 0.0
-1.498474e-01 -9.158864e-04 0.0
-1.508226e-01 -9.433360e-04 0.0
-1.504975e-01 -9.341771e-04 0.0
-1.511476e-01 -9.525027e-04 0.0
-1.514726e-01 -9.616752e-04 0.0
-1.517976e-01 -9.708530e-04 0.0
-1.521227e-01 -9.800350e-04 0.0
-1.524477e-01 -9.892212e-04 0.0
-1.527727e-01 -9.984109e-04 0.0
-1.530977e-01 -1.007604e-03 0.0
-1.534227e-01 -1.016799e-03 0.0
-1.537477e-01 -1.025995e-03 0.0
-1.540727e-01 -1.035192e-03 0.0
-1.543977e-01 -1.044388e-03 0.0
-1.547226e-01 -1.053582e-03 0.0
-1.550476e-01 -1.062773e-03 0.0
-1.553726e-01 -1.071961e-03 0.0
-1.556976e-01 -1.081143e-03 0.0
-1.560225e-01 -1.090320e-03 0.0
-1.563475e-01 -1.099492e-03 0.0
-1.566725e-01 -1.108656e-03 0.0
-1.569974e-01 -1.117813e-03 0.0
-1.573224e-01 -1.126961e-03 0.0
-1.576473e-01 -1.136101e-03 0.0
-1.579723e-01 -1.145233e-03 0.0
-1.582972e-01 -1.154354e-03 0.0
-1.586222e-01 -1.163464e-03 0.0
-1.589471e-01 -1.172563e-03 0.0
-1.592721e-01 -1.181649e-03 0.0
-1.595970e-01 -1.190723e-03 0.0
-1.599220e-01 -1.199783e-03 0.0
-1.602469e-01 -1.208831e-03 0.0
-1.605718e-01 -1.217867e-03 0.0
-1.608968e-01 -1.226891e-03 0.0
-1.612217e-01 -1.235904e-03 0.0
-1.615467e-01 -1.244910e-03 0.0
-1.618717e-01 -1.253913e-03 0.0
-1.621967e-01 -1.262915e-03 0.0
-1.628466e-01 -1.280923e-03 0.0
-1.625216e-01 -1.271918e-03 0.0
-1.501725e-01 -9.250270e-04 0.0
-1.449707e-01 -7.816914e-04 0.0
-1.407428e-01 -6.728665e-04 0.0
-1.374898e-01 -5.960527e-04 0.0
-1.342363e-01 -5.266871e-04 0.0
-1.313077e-01 -4.714783e-04 0.0
-1.287043e-01 -4.285786e-04 0.0
-1.264263e-01 -3.959703e-04 0.0
-1.241483e-01 -3.678980e-04 0.0
-1.218705e-01 -3.441898e-04 0.0
-1.215451e-01 -3.411466e-04 0.0
-1.212197e-01 -3.381871e-04 0.0
-1.208943e-01 -3.353098e-04 0.0
-1.205689e-01 -3.325142e-04 0.0
-1.202436e-01 -3.298004e-04 0.0
-1.192674e-01 -3.221434e-04 0.0
-1.189421e-01 -3.197488e-04 0.0
-1.186167e-01 -3.174318e-04 0.0
-1.182914e-01 -3.151910e-04 0.0
-1.179660e-01 -3.130253e-04 0.0
-1.176407e-01 -3.109341e-04 0.0
-1.173153e-01 -3.089168e-04 0.0
-1.169900e-01 -3.069724e-04 0.0
-1.166647e-01 -3.050994e-04 0.0
-1.163393e-01 -3.032973e-04 0.0
-1.160140e-01 -3.015660e-04 0.0
-1.156887e-01 -2.999059e-04 0.0
-1.153634e-01 -2.983174e-04 0.0
-1.150380e-01 -2.968010e-04 0.0
-1.147127e-01 -2.953573e-04 0.0
-1.143874e-01 -2.939870e-04 0.0
-1.140621e-01 -2.926909e-04 0.0
-1.130861e-01 -2.892473e-04 0.0
-1.127608e-01 -2.882445e-04 0.0
-1.124355e-01 -2.873120e-04 0.0
-1.121103e-01 -2.864481e-04 0.0
-1.117850e-01 -2.856505e-04 0.0
-1.114597e-01 -2.849175e-04 0.0
-1.111344e-01 -2.842471e-04 0.0
-1.108092e-01 -2.836376e-04 0.0
-1.104839e-01 -2.830878e-04 0.0
-1.101586e-01 -2.825969e-04 0.0
-1.098334e-01 -2.821644e-04 0.0
-1.095081e-01 -2.817899e-04 0.0
-1.091829e-01 -2.814732e-04 0.0
-1.088577e-01 -2.812149e-04 0.0
-1.085324e-01 -2.810156e-04 0.0
-1.082072e-01 -2.808757e-04 0.0
-1.072315e-01 -2.808062e-04 0.0
-1.069063e-01 -2.808982e-04 0.0
-1.065810e-01 -2.810464e-04 0.0
-1.062558e-01 -2.812489e-04 0.0
-1.059306e-01 -2.815038e-04 0.0
-1.056054e-01 -2.818095e-04 0.0
-1.052802e-01 -2.821648e-04 0.0
-1.049550e-01 -2.825684e-04 0.0
-1.046299e-01 -2.830184e-04 0.0
-1.043047e-01 -2.835134e-04 0.0
-1.039795e-01 -2.840525e-04 0.0
-1.036544e-01 -2.846349e-04 0.0
-1.033292e-01 -2.852597e-04 0.0
-1.030040e-01 -2.859253e-04 0.0
-1.026789e-01 -2.866302e-04 0.0
-1.023538e-01 -2.873730e-04 0.0
-1.020286e-01 -2.881529e-04 0.0
-1.010532e-01 -2.907044e-04 0.0
-1.007281e-01 -2.916220e-04 0.0
-1.004030e-01 -2.925729e-04 0.0
-1.000779e-01 -2.935576e-04 0.0
-9.975276e-02 -2.945761e-04 0.0
-9.942764e-02 -2.956278e-04 0.0
-9.910253e-02 -2.967123e-04 0.0
-9.877743e-02 -2.978298e-04 0.0
-9.845232e-02 -2.989802e-04 0.0
-9.812722e-02 -3.001622e-04 0.0
-9.780213e-02 -3.013737e-04 0.0
-9.747705e-02 -3.026125e-04 0.0
-9.715197e-02 -3.038769e-04 0.0
-9.682689e-02 -3.051653e-04 0.0
-9.650183e-02 -3.064753e-04 0.0
-9.617677e-02 -3.078044e-04 0.0
-9.520161e-02 -3.118879e-04 0.0
-9.487656e-02 -3.132789e-04 0.0
-9.455152e-02 -3.146848e-04 0.0
-9.422647e-02 -3.161060e-04 0.0
-9.390143e-02 -3.175429e-04 0.0
-9.357639e-02 -3.189958e-04 0.0
-9.325134e-02 -3.204651e-04 0.0
-9.292630e-02 -3.219510e-04 0.0
-9.260126e-02 -3.234536e-04 0.0
-9.227621e-02 -3.249726e-04 0.0
-9.195118e-02 -3.265072e-04 0.0
-9.162614e-02 -3.280563e-04 0.0
-9.130111e-02 -3.296192e-04 0.0
-9.097608e-02 -3.311952e-04 0.0
-9.065105e-02 -3.327829e-04 0.0
-8.967599e-02 -3.376078e-04 0.0
-8.935097e-02 -3.392354e-04 0.0
-8.902596e-02 -3.408722e-04 0.0
-8.870094e-02 -3.425173e-04 0.0
-8.837593e-02 -3.441703e-04 0.0
-8.805092e-02 -3.458316e-04 0.0
-8.772591e-02 -3.475018e-04 0.0
-8.740090e-02 -3.491814e-04 0.0
-8.707589e-02 -3.508697e-04 0.0
-8.675088e-02 -3.525661e-04 0.0
-8.642587e-02 -3.542704e-04 0.0
-8.610087e-02 -3.559834e-04 0.0
-8.577586e-02 -3.577055e-04 0.0
-8.545086e-02 -3.594368e-04 0.0
-8.512586e-02 -3.611768e-04 0.0
-8.480086e-02 -3.629257e-04 0.0
-8.382588e-02 -3.682250e-04 0.0
-8.350090e-02 -3.700056e-04 0.0
-8.317592e-02 -3.717908e-04 0.0
-8.285095e-02 -3.735794e-04 0.0
-8.252599e-02 -3.753702e-04 0.0
-8.220102e-02 -3.771618e-04 0.0
-8.187607e-02 -3.789519e-04 0.0
-8.155112e-02 -3.807390e-04 0.0
-8.122617e-02 -3.825220e-04 0.0
-8.090123e-02 -3.843007e-04 0.0
-8.057629e-02 -3.860753e-04 0.0
-8.025135e-02 -3.878466e-04 0.0
-7.992641e-02 -3.896150e-04 0.0
-7.960147e-02 -3.913804e-04 0.0
-7.927654e-02 -3.931427e-04 0.0
-7.830175e-02 -3.984135e-04 0.0
-7.797682e-02 -4.001637e-04 0.0
-7.765191e-02 -4.019078e-04 0.0
-7.732699e-02 -4.036447e-04 0.0
-7.700208e-02 -4.053732e-04 0.0
-7.667718e-02 -4.070920e-04 0.0
-7.635228e-02 -4.087994e-04 0.0
-7.602738e-02 -4.104939e-04 0.0
-7.570248e-02 -4.121750e-04 0.0
-7.537759e-02 -4.138428e-04 0.0
-7.505269e-02 -4.154977e-04 0.0
-7.472780e-02 -4.171401e-04 0.0
-7.440290e-02 -4.187705e-04 0.0
-7.407800e-02 -4.203892e-04 0.0
-7.375310e-02 -4.219977e-04 0.0
-7.277839e-02 -4.267719e-04 0.0
-7.245348e-02 -4.283475e-04 0.0
-7.212857e-02 -4.299164e-04 0.0
-7.180365e-02 -4.314796e-04 0.0
-7.147874e-02 -4.330375e-04 0.0
-7.115383e-02 -4.345897e-04 0.0
-7.082891e-02 -4.361360e-04 0.0
-7.050400e-02 -4.376772e-04 0.0
-7.017908e-02 -4.392137e-04 0.0
-6.985417e-02 -4.407458e-04 0.0
-6.952925e-02 -4.422726e-04 0.0
-6.920434e-02 -4.437930e-04 0.0
-6.887943e-02 -4.453064e-04 0.0
-6.855451e-02 -4.468125e-04 0.0
-6.822960e-02 -4.483116e-04 0.0
-6.725486e-02 -4.527637e-04 0.0
-6.692995e-02 -4.542317e-04 0.0
-6.660504e-02 -4.556927e-04 0.0
-6.628012e-02 -4.571478e-04 0.0
-6.595520e-02 -4.585980e-04 0.0
-6.563029e-02 -4.600437e-04 0.0
-6.530537e-02 -4.614848e-04 0.0
-6.498046e-02 -4.629207e-04 0.0
-6.465554e-02 -4.643509e-04 0.0
-6.433063e-02 -4.657747e-04 0.0
-6.400573e-02 -4.671907e-04 0.0
-6.368083e-02 -4.685969e-04 0.0
-6.335593e-02 -4.699908e-04 0.0
-6.303104e-02 -4.713700e-04 0.0
-6.205639e-02 -4.754052e-04 0.0
-6.173151e-02 -4.767139e-04 0.0
-6.140664e-02 -4.780033e-04 0.0
-6.108176e-02 -4.792729e-04 0.0
-6.075688e-02 -4.805229e-04 0.0
-6.043200e-02 -4.817539e-04 0.0
-6.010712e-02 -4.829665e-04 0.0
-5.978224e-02 -4.841608e-04 0.0
-5.945736e-02 -4.853369e-04 0.0
-5.913248e-02 -4.864943e-04 0.0
-5.880760e-02 -4.876319e-04 0.0
-5.848272e-02 -4.887496e-04 0.0
-5.815783e-02 -4.898476e-04 0.0
-5.783295e-02 -4.909261e-04 0.0
-5.750807e-02 -4.919847e-04 0.0
-5.653340e-02 -4.950347e-04 0.0
-5.620851e-02 -4.960125e-04 0.0
-5.588361e-02 -4.969725e-04 0.0
-5.555870e-02 -4.979148e-04 0.0
-5.523379e-02 -4.988397e-04 0.0
-5.490887e-02 -4.997487e-04 0.0
-5.458395e-02 -5.006447e-04 0.0
-5.425902e-02 -5.015301e-04 0.0
-5.393408e-02 -5.024065e-04 0.0
-5.360913e-02 -5.032747e-04 0.0
-5.328417e-02 -5.041366e-04 0.0
-5.295920e-02 -5.049951e-04 0.0
-5.263423e-02 -5.058536e-04 0.0
-5.230925e-02 -5.067145e-04 0.0
-5.133426e-02 -5.093221e-04 0.0
-5.100926e-02 -5.102040e-04 0.0
-5.068424e-02 -5.110953e-04 0.0
-5.035922e-02 -5.119969e-04 0.0
-5.003420e-02 -5.129089e-04 0.0
-4.970917e-02 -5.138318e-04 0.0
-4.938414e-02 -5.147664e-04 0.0
-4.905910e-02 -5.157142e-04 0.0
-4.873406e-02 -5.166768e-04 0.0
-4.840902e-02 -5.176558e-04 0.0
-4.808396e-02 -5.186528e-04 0.0
-4.775891e-02 -5.196690e-04 0.0
-4.743384e-02 -5.207062e-04 0.0
-4.710878e-02 -5.217659e-04 0.0
-4.613358e-02 -5.250949e-04 0.0
-4.580851e-02 -5.262537e-04 0.0
-4.548345e-02 -5.274353e-04 0.0
-4.515839e-02 -5.286392e-04 0.0
-4.483334e-02 -5.298643e-04 0.0
-4.450829e-02 -5.311095e-04 0.0
-4.418324e-02 -5.323727e-04 0.0
-4.385820e-02 -5.336520e-04 0.0
-4.353317e-02 -5.349464e-04 0.0
-4.320813e-02 -5.362555e-04 0.0
-4.288311e-02 -5.375794e-04 0.0
-4.255808e-02 -5.389175e-04 0.0
-4.223306e-02 -5.402686e-04 0.0
-4.190805e-02 -5.416321e-04 0.0
-4.093302e-02 -5.457941e-04 0.0
-4.060803e-02 -5.472025e-04 0.0
-4.028304e-02 -5.486189e-04 0.0
-3.995805e-02 -5.500422e-04 0.0
-3.963307e-02 -5.514714e-04 0.0
-3.930810e-02 -5.529046e-04 0.0
-3.898314e-02 -5.543396e-04 0.0
-3.865818e-02 -5.557747e-04 0.0
-3.833323e-02 -5.572088e-04 0.0
-3.800828e-02 -5.586408e-04 0.0
-3.768335e-02 -5.600685e-04 0.0
-3.735842e-02 -5.614891e-04 0.0
-3.703349e-02 -5.629008e-04 0.0
-3.670857e-02 -5.643030e-04 0.0
-3.573383e-02 -5.684460e-04 0.0
-3.540892e-02 -5.698014e-04 0.0
-3.508402e-02 -5.711443e-04 0.0
-3.475911e-02 -5.724759e-04 0.0
-3.443420e-02 -5.737959e-04 0.0
-3.410930e-02 -5.751034e-04 0.0
-3.378440e-02 -5.763983e-04 0.0
-3.345950e-02 -5.776811e-04 0.0
-3.313460e-02 -5.789518e-04 0.0
-3.280970e-02 -5.802088e-04 0.0
-3.248481e-02 -5.814504e-04 0.0
-3.215991e-02 -5.826751e-04 0.0
-3.183502e-02 -5.838818e-04 0.0
-3.151014e-02 -5.850692e-04 0.0
-3.053547e-02 -5.885078e-04 0.0
-3.021058e-02 -5.896140e-04 0.0
-2.988568e-02 -5.907009e-04 0.0
-2.956078e-02 -5.917689e-04 0.0
-2.923588e-02 -5.928196e-04 0.0
-2.891097e-02 -5.938553e-04 0.0
-2.858605e-02 -5.948776e-04 0.0
-2.826114e-02 -5.958865e-04 0.0
-2.793622e-02 -5.968818e-04 0.0
-2.761129e-02 -5.978645e-04 0.0
-2.728636e-02 -5.988359e-04 0.0
-2.696143e-02 -5.997965e-04 0.0
-2.663650e-02 -6.007454e-04 0.0
-2.566168e-02 -6.035180e-04 0.0
-2.533674e-02 -6.044219e-04 0.0
-2.501179e-02 -6.053170e-04 0.0
-2.468683e-02 -6.062035e-04 0.0
-2.436187e-02 -6.070820e-04 0.0
-2.403691e-02 -6.079537e-04 0.0
-2.371194e-02 -6.088202e-04 0.0
-2.338697e-02 -6.096830e-04 0.0
-2.306200e-02 -6.105431e-04 0.0
-2.273702e-02 -6.114012e-04 0.0
-2.241204e-02 -6.122580e-04 0.0
-2.208705e-02 -6.131143e-04 0.0
-2.176206e-02 -6.139712e-04 0.0
-2.143707e-02 -6.148296e-04 0.0
-2.046210e-02 -6.174194e-04 0.0
-2.013711e-02 -6.182867e-04 0.0
-1.981212e-02 -6.191556e-04 0.0
-1.948713e-02 -6.200257e-04 0.0
-1.916214e-02 -6.208967e-04 0.0
-1.883715e-02 -6.217681e-04 0.0
-1.851217e-02 -6.226399e-04 0.0
-1.818718e-02 -6.235122e-04 0.0
-1.786220e-02 -6.243850e-04 0.0
-1.753722e-02 -6.252587e-04 0.0
-1.721223e-02 -6.261337e-04 0.0
-1.688725e-02 -6.270107e-04 0.0
-1.656227e-02 -6.278902e-04 0.0
-1.558735e-02 -6.305373e-04 0.0
-1.526238e-02 -6.314207e-04 0.0
-1.493742e-02 -6.323030e-04 0.0
-1.461247e-02 -6.331818e-04 0.0
-1.428752e-02 -6.340547e-04 0.0
-1.396258e-02 -6.349206e-04 0.0
-1.363764e-02 -6.357786e-04 0.0
-1.331271e-02 -6.366273e-04 0.0
-1.298778e-02 -6.374654e-04 0.0
-1.266285e-02 -6.382921e-04 0.0
-1.233793e-02 -6.391083e-04 0.0
-1.201301e-02 -6.399144e-04 0.0
-1.168809e-02 -6.407102e-04 0.0
-1.071334e-02 -6.430296e-04 0.0
-1.038843e-02 -6.437804e-04 0.0
-1.006353e-02 -6.445185e-04 0.0
-9.738623e-03 -6.452423e-04 0.0
-9.413723e-03 -6.459511e-04 0.0
-9.088825e-03 -6.466449e-04 0.0
-8.763930e-03 -6.473230e-04 0.0
-8.439037e-03 -6.479839e-04 0.0
-8.114146e-03 -6.486258e-04 0.0
-7.789255e-03 -6.492489e-04 0.0
-7.464364e-03 -6.498541e-04 0.0
-7.139472e-03 -6.504425e-04 0.0
-6.814580e-03 -6.510138e-04 0.0
-6.489685e-03 -6.515679e-04 0.0
-5.514981e-03 -6.531308e-04 0.0
-5.190072e-03 -6.536235e-04 0.0
-4.865160e-03 -6.541040e-04 0.0
-4.540245e-03 -6.545727e-04 0.0
-4.215325e-03 -6.550307e-04 0.0
-3.890402e-03 -6.554795e-04 0.0
-3.565476e-03 -6.559205e-04 0.0
-3.240546e-03 -6.563546e-04 0.0
-2.915615e-03 -6.567816e-04 0.0
-2.590681e-03 -6.572008e-04 0.0
-2.265745e-03 -6.576117e-04 0.0
-1.940808e-03 -6.580141e-04 0.0
-1.615868e-03 -6.584082e-04 0.0
-6.410329e-04 -6.595462e-04 0.0
-3.160804e-04 -6.599119e-04 0.0
8.877124e-06 -6.602719e-04 0.0
3.338399e-04 -6.606281e-04 0.0
6.588073e-04 -6.609827e-04 0.0
9.837784e-04 -6.613368e-04 0.0
1.308753e-03 -6.616903e-04 0.0
1.633730e-03 -6.620434e-04 0.0
1.958710e-03 -6.623968e-04 0.0
2.283692e-03 -6.627509e-04 0.0
2.608674e-03 -6.631052e-04 0.0
2.933658e-03 -6.634582e-04 0.0
3.908618e-03 -6.645098e-04 0.0
4.233608e-03 -6.648596e-04 0.0
4.558602e-03 -6.652083e-04 0.0
4.883599e-03 -6.655563e-04 0.0
5.208600e-03 -6.659051e-04 0.0
5.533604e-03 -6.662563e-04 0.0
5.858610e-03 -6.666107e-04 0.0
6.183618e-03 -6.669680e-04 0.0
6.508628e-03 -6.673280e-04 0.0
6.833640e-03 -6.676917e-04 0.0
7.158653e-03 -6.680598e-04 0.0
7.483668e-03 -6.684319e-04 0.0
7.808683e-03 -6.688076e-04 0.0
8.783737e-03 -6.699558e-04 0.0
9.108757e-03 -6.703459e-04 0.0
9.433779e-03 -6.707392e-04 0.0
9.758803e-03 -6.711363e-04 0.0
1.008383e-02 -6.715385e-04 0.0
1.040886e-02 -6.719467e-04 0.0
1.073389e-02 -6.723610e-04 0.0
1.105892e-02 -6.727819e-04 0.0
1.138396e-02 -6.732106e-04 0.0
1.170900e-02 -6.736487e-04 0.0
1.203404e-02 -6.740969e-04 0.0
1.235908e-02 -6.745557e-04 0.0
1.268413e-02 -6.750258e-04 0.0
1.365927e-02 -6.765143e-04 0.0
1.398432e-02 -6.770360e-04 0.0
1.430937e-02 -6.775700e-04 0.0
1.463442e-02 -6.781168e-04 0.0
1.495947e-02 -6.786766e-04 0.0
1.528451e-02 -6.792482e-04 0.0
1.560956e-02 -6.798307e-04 0.0
1.593461e-02 -6.804243e-04 0.0
1.625965e-02 -6.810305e-04 0.0
1.658470e-02 -6.816504e-04 0.0
1.690975e-02 -6.822845e-04 0.0
1.723480e-02 -6.829329e-04 0.0
1.755986e-02 -6.835967e-04 0.0
1.853501e-02 -6.856885e-04 0.0
1.886006e-02 -6.864182e-04 0.0
1.918510e-02 -6.871629e-04 0.0
1.951014e-02 -6.879221e-04 0.0
1.983518e-02 -6.886946e-04 0.0