# vtk DataFile Version 2.0
Simplicial Mesh Example
ASCII
DATASET UNSTRUCTURED_GRID
POINTS 1001 double
4.900000e+04 5.000000e+02 0.0
4.910000e+04 5.000000e+02 0.0
4.770000e+04 5.000000e+02 0.0
4.780000e+04 5.000000e+02 0.0
4.640000e+04 5.000000e+02 0.0
4.650000e+04 5.000000e+02 0.0
4.510000e+04 5.000000e+02 0.0
4.520000e+04 5.000000e+02 0.0
4.380000e+04 5.000000e+02 0.0
4.390000e+04 5.000000e+02 0.0
4.250000e+04 5.000000e+02 0.0
4.260000e+04 5.000000e+02 0.0
4.120000e+04 5.000000e+02 0.0
4.130000e+04 5.000000e+02 0.0
3.990000e+04 5.000000e+02 0.0
4.000000e+04 5.000000e+02 0.0
3.860000e+04 5.000000e+02 0.0
3.870000e+04 5.000000e+02 0.0
3.730000e+04 5.000000e+02 0.0
3.740000e+04 5.000000e+02 0.0
3.600000e+04 5.000000e+02 0.0
3.610000e+04 5.000000e+02 0.0
3.460000e+04 5.000000e+02 0.0
3.470000e+04 5.000000e+02 0.0
3.330000e+04 5.000000e+02 0.0
3.340000e+04 5.000000e+02 0.0
3.200000e+04 5.000000e+02 0.0
3.210000e+04 5.000000e+02 0.0
3.060000e+04 5.000000e+02 0.0
3.070000e+04 5.000000e+02 0.0
2.930000e+04 5.000000e+02 0.0
2.940000e+04 5.000000e+02 0.0
2.800000e+04 5.000000e+02 0.0
2.810000e+04 5.000000e+02 0.0
2.660000e+04 5.000000e+02 0.0
2.670000e+04 5.000000e+02 0.0
2.520000e+04 5.000000e+02 0.0
2.530000e+04 5.000000e+02 0.0
2.390000e+04 5.000000e+02 0.0
2.400000e+04 5.000000e+02 0.0
2.250000e+04 5.000000e+02 0.0
2.260000e+04 5.000000e+02 0.0
2.110000e+04 5.000000e+02 0.0
2.120000e+04 5.000000e+02 0.0
1.980000e+04 5.000000e+02 0.0
1.990000e+04 5.000000e+02 0.0
1.840000e+04 5.000000e+02 0.0
1.850000e+04 5.000000e+02 0.0
1.700000e+04 5.000000e+02 0.0
1.710000e+04 5.000000e+02 0.0
1.560000e+04 5.000000e+02 0.0
1.570000e+04 5.000000e+02 0.0
1.420000e+04 5.000000e+02 0.0
1.430000e+04 5.000000e+02 0.0
1.270000e+04 5.000000e+02 0.0
1.280000e+04 5.000000e+02 0.0
1.130000e+04 5.000000e+02 0.0
1.140000e+04 5.000000e+02 0.0
9.900000e+03 5.000000e+02 0.0
1.000000e+04 5.000000e+02 0.0
8.500000e+03 5.000000e+02 0.0
8.600000e+03 5.000000e+02 0.0
7.000000e+03 5.000000e+02 0.0
7.100000e+03 5.000000e+02 0.0
5.600000e+03 5.000000e+02 0.0
5.700000e+03 5.000000e+02 0.0
4.100000e+03 5.000000e+02 0.0
4.200000e+03 5.000000e+02 0.0
2.600000e+03 5.000000e+02 0.0
2.700000e+03 5.000000e+02 0.0
1.100000e+03 5.000000e+02 0.0
1.200000e+03 5.000000e+02 0.0
-3.000000e+02 5.000000e+02 0.0
-2.000000e+02 5.000000e+02 0.0
-1.800000e+03 5.000000e+02 0.0
-1.700000e+03 5.000000e+02 0.0
-3.400000e+03 5.000000e+02 0.0
-3.300000e+03 5.000000e+02 0.0
-4.900000e+03 5.000000e+02 0.0
-4.800000e+03 5.000000e+02 0.0
-6.400000e+03 5.000000e+02 0.0
-6.300000e+03 5.000000e+02 0.0
-8.000000e+03 5.000000e+02 0.0
-7.900000e+03 5.000000e+02 0.0
-9.500000e+03 5.000000e+02 0.0
-9.400000e+03 5.000000e+02 0.0
-1.110000e+04 5.000000e+02 0.0
-1.100000e+04 5.000000e+02 0.0
-1.270000e+04 5.000000e+02 0.0
-1.260000e+04 5.000000e+02 0.0
-1.430000e+04 5.000000e+02 0.0
-1.420000e+04 5.000000e+02 0.0
-1.590000e+04 5.000000e+02 0.0
-1.580000e+04 5.000000e+02 0.0
-1.750000e+04 5.000000e+02 0.0
-1.740000e+04 5.000000e+02 0.0
-1.920000e+04 5.000000e+02 0.0
-1.910000e+04 5.000000e+02 0.0
-2.080000e+04 5.000000e+02 0.0
-2.070000e+04 5.000000e+02 0.0
-2.250000e+04 5.000000e+02 0.0
-2.240000e+04 5.000000e+02 0.0
-2.420000e+04 5.000000e+02 0.0
-2.410000e+04 5.000000e+02 0.0
-2.590000e+04 5.000000e+02 0.0
-2.580000e+04 5.000000e+02 0.0
-2.770000e+04 5.000000e+02 0.0
-2.760000e+04 5.000000e+02 0.0
-2.940000e+04 5.000000e+02 0.0
-2.930000e+04 5.000000e+02 0.0
-3.120000e+04 5.000000e+02 0.0
-3.110000e+04 5.000000e+02 0.0
-3.310000e+04 5.000000e+02 0.0
-3.300000e+04 5.000000e+02 0.0
-3.490000e+04 5.000000e+02 0.0
-3.480000e+04 5.000000e+02 0.0
-3.680000e+04 5.000000e+02 0.0
-3.670000e+04 5.000000e+02 0.0
-3.760000e+04 5.000000e+02 0.0
-3.750000e+04 5.000000e+02 0.0
-3.770000e+04 5.000000e+02 0.0
-3.780000e+04 5.000000e+02 0.0
-3.790000e+04 5.000000e+02 0.0
-3.800000e+04 5.000000e+02 0.0
-3.820000e+04 5.000000e+02 0.0
-3.830000e+04 5.000000e+02 0.0
-3.840000e+04 5.000000e+02 0.0
-3.850000e+04 5.000000e+02 0.0
-3.860000e+04 5.000000e+02 0.0
-3.870000e+04 5.000000e+02 0.0
-3.900000e+04 5.000000e+02 0.0
-3.890000e+04 5.000000e+02 0.0
-3.910000e+04 5.000000e+02 0.0
-3.920000e+04 5.000000e+02 0.0
-3.930000e+04 5.000000e+02 0.0
-3.940000e+04 5.000000e+02 0.0
-3.960000e+04 5.000000e+02 0.0
-3.970000e+04 5.000000e+02 0.0
-3.980000e+04 5.000000e+02 0.0
-3.990000e+04 5.000000e+02 0.0
-4.000000e+04 5.000000e+02 0.0
-4.010000e+04 5.000000e+02 0.0
-4.020000e+04 5.000000e+02 0.0
-4.050000e+04 5.000000e+02 0.0
-4.040000e+04 5.000000e+02 0.0
-4.060000e+04 5.000000e+02 0.0
-4.070000e+04 5.000000e+02 0.0
-4.080000e+04 5.000000e+02 0.0
-4.090000e+04 5.000000e+02 0.0
-4.100000e+04 5.000000e+02 0.0
-4.110000e+04 5.000000e+02 0.0
-4.130000e+04 5.000000e+02 0.0
-4.140000e+04 5.000000e+02 0.0
-4.150000e+04 5.000000e+02 0.0
-4.160000e+04 5.000000e+02 0.0
-4.170000e+04 5.000000e+02 0.0
-4.180000e+04 5.000000e+02 0.0
-4.190000e+04 5.000000e+02 0.0
-4.200000e+04 5.000000e+02 0.0
-4.210000e+04 5.000000e+02 0.0
-4.230000e+04 5.000000e+02 0.0
-4.240000e+04 5.000000e+02 0.0
-4.250000e+04 5.000000e+02 0.0
-4.260000e+04 5.000000e+02 0.0
-4.270000e+04 5.000000e+02 0.0
-4.280000e+04 5.000000e+02 0.0
-4.290000e+04 5.000000e+02 0.0
-4.300000e+04 5.000000e+02 0.0
-4.310000e+04 5.000000e+02 0.0
-4.330000e+04 5.000000e+02 0.0
-4.340000e+04 5.000000e+02 0.0
-4.350000e+04 5.000000e+02 0.0
-4.360000e+04 5.000000e+02 0.0
-4.370000e+04 5.000000e+02 0.0
-4.380000e+04 5.000000e+02 0.0
-4.390000e+04 5.000000e+02 0.0
-4.400000e+04 5.000000e+02 0.0
-4.410000e+04 5.000000e+02 0.0
-4.420000e+04 5.000000e+02 0.0
-4.430000e+04 5.000000e+02 0.0
-4.440000e+04 5.000000e+02 0.0
-4.470000e+04 5.000000e+02 0.0
-4.460000e+04 5.000000e+02 0.0
-4.480000e+04 5.000000e+02 0.0
-4.490000e+04 5.000000e+02 0.0
-4.500000e+04 5.000000e+02 0.0
-4.510000e+04 5.000000e+02 0.0
-4.520000e+04 5.000000e+02 0.0
-4.530000e+04 5.000000e+02 0.0
-4.540000e+04 5.000000e+02 0.0
-4.550000e+04 5.000000e+02 0.0
-4.560000e+04 5.000000e+02 0.0
-4.570000e+04 5.000000e+02 0.0
-4.580000e+04 5.000000e+02 0.0
-4.590000e+04 5.000000e+02 0.0
-4.600000e+04 5.000000e+02 0.0
-4.630000e+04 5.000000e+02 0.0
-4.620000e+04 5.000000e+02 0.0
-4.640000e+04 5.000000e+02 0.0
-4.650000e+04 5.000000e+02 0.0
-4.660000e+04 5.000000e+02 0.0
-4.670000e+04 5.000000e+02 0.0
-4.680000e+04 5.000000e+02 0.0
-4.690000e+04 5.000000e+02 0.0
-4.700000e+04 5.000000e+02 0.0
-4.710000e+04 5.000000e+02 0.0
-4.720000e+04 5.000000e+02 0.0
-4.730000e+04 5.000000e+02 0.0
-4.740000e+04 5.000000e+02 0.0
-4.750000e+04 5.000000e+02 0.0
-4.760000e+04 5.000000e+02 0.0
-4.770000e+04 5.000000e+02 0.0
-4.780000e+04 5.000000e+02 0.0
-4.790000e+04 5.000000e+02 0.0
-4.800000e+04 5.000000e+02 0.0
-4.810000e+04 5.000000e+02 0.0
-4.820000e+04 5.000000e+02 0.0
-4.830000e+04 5.000000e+02 0.0
-4.840000e+04 5.000000e+02 0.0
-4.850000e+04 5.000000e+02 0.0
-4.860000e+04 5.000000e+02 0.0
-4.870000e+04 5.000000e+02 0.0
-4.880000e+04 5.000000e+02 0.0
-4.890000e+04 5.000000e+02 0.0
-4.900000e+04 5.000000e+02 0.0
-4.910000e+04 5.000000e+02 0.0
-4.920000e+04 5.000000e+02 0.0
-4.930000e+04 5.000000e+02 0.0
-4.940000e+04 5.000000e+02 0.0
-4.950000e+04 5.000000e+02 0.0
-4.960000e+04 5.000000e+02 0.0
-4.970000e+04 5.000000e+02 0.0
-4.980000e+04 5.000000e+02 0.0
-5.000000e+04 5.000000e+02 0.0
-4.990000e+04 5.000000e+02 0.0
-4.610000e+04 5.000000e+02 0.0
-4.450000e+04 5.000000e+02 0.0
-4.320000e+04 5.000000e+02 0.0
-4.220000e+04 5.000000e+02 0.0
-4.120000e+04 5.000000e+02 0.0
-4.030000e+04 5.000000e+02 0.0
-3.950000e+04 5.000000e+02 0.0
-3.880000e+04 5.000000e+02 0.0
-3.810000e+04 5.000000e+02 0.0
-3.740000e+04 5.000000e+02 0.0
-3.730000e+04 5.000000e+02 0.0
-3.720000e+04 5.000000e+02 0.0
-3.710000e+04 5.000000e+02 0.0
-3.700000e+04 5.000000e+02 0.0
-3.690000e+04 5.000000e+02 0.0
-3.660000e+04 5.000000e+02 0.0
-3.650000e+04 5.000000e+02 0.0
-3.640000e+04 5.000000e+02 0.0
-3.630000e+04 5.000000e+02 0.0
-3.620000e+04 5.000000e+02 0.0
-3.610000e+04 5.000000e+02 0.0
-3.600000e+04 5.000000e+02 0.0
-3.590000e+04 5.000000e+02 0.0
-3.580000e+04 5.000000e+02 0.0
-3.570000e+04 5.000000e+02 0.0
-3.560000e+04 5.000000e+02 0.0
-3.550000e+04 5.000000e+02 0.0
-3.540000e+04 5.000000e+02 0.0
-3.530000e+04 5.000000e+02 0.0
-3.520000e+04 5.000000e+02 0.0
-3.510000e+04 5.000000e+02 0.0
-3.500000e+04 5.000000e+02 0.0
-3.470000e+04 5.000000e+02 0.0
-3.460000e+04 5.000000e+02 0.0
-3.450000e+04 5.000000e+02 0.0
-3.440000e+04 5.000000e+02 0.0
-3.430000e+04 5.000000e+02 0.0
-3.420000e+04 5.000000e+02 0.0
-3.410000e+04 5.000000e+02 0.0
-3.400000e+04 5.000000e+02 0.0
-3.390000e+04 5.000000e+02 0.0
-3.380000e+04 5.000000e+02 0.0
-3.370000e+04 5.000000e+02 0.0
-3.360000e+04 5.000000e+02 0.0
-3.350000e+04 5.000000e+02 0.0
-3.340000e+04 5.000000e+02 0.0
-3.330000e+04 5.000000e+02 0.0
-3.320000e+04 5.000000e+02 0.0
-3.290000e+04 5.000000e+02 0.0
-3.280000e+04 5.000000e+02 0.0
-3.270000e+04 5.000000e+02 0.0
-3.260000e+04 5.000000e+02 0.0
-3.250000e+04 5.000000e+02 0.0
-3.240000e+04 5.000000e+02 0.0
-3.230000e+04 5.000000e+02 0.0
-3.220000e+04 5.000000e+02 0.0
-3.210000e+04 5.000000e+02 0.0
-3.200000e+04 5.000000e+02 0.0
-3.190000e+04 5.000000e+02 0.0
-3.180000e+04 5.000000e+02 0.0
-3.170000e+04 5.000000e+02 0.0
-3.160000e+04 5.000000e+02 0.0
-3.150000e+04 5.000000e+02 0.0
-3.140000e+04 5.000000e+02 0.0
-3.130000e+04 5.000000e+02 0.0
-3.100000e+04 5.000000e+02 0.0
-3.090000e+04 5.000000e+02 0.0
-3.080000e+04 5.000000e+02 0.0
-3.070000e+04 5.000000e+02 0.0
-3.060000e+04 5.000000e+02 0.0
-3.050000e+04 5.000000e+02 0.0
-3.040000e+04 5.000000e+02 0.0
-3.030000e+04 5.000000e+02 0.0
-3.020000e+04 5.000000e+02 0.0
-3.010000e+04 5.000000e+02 0.0
-3.000000e+04 5.000000e+02 0.0
-2.990000e+04 5.000000e+02 0.0
-2.980000e+04 5.000000e+02 0.0
-2.970000e+04 5.000000e+02 0.0
-2.960000e+04 5.000000e+02 0.0
-2.950000e+04 5.000000e+02 0.0
-2.920000e+04 5.000000e+02 0.0
-2.910000e+04 5.000000e+02 0.0
-2.900000e+04 5.000000e+02 0.0
-2.890000e+04 5.000000e+02 0.0
-2.880000e+04 5.000000e+02 0.0
[...]
POINT_DATA 1001
VECTORS displacement double
1.590006e-01 -2.217026e-03 0.0
1.593256e-01 -2.231063e-03 0.0
1.547757e-01 -2.034526e-03 0.0
1.551007e-01 -2.048558e-03 0.0
1.505502e-01 -1.852787e-03 0.0
1.508753e-01 -1.866694e-03 0.0
1.463233e-01 -1.674251e-03 0.0
1.466485e-01 -1.687789e-03 0.0
1.420948e-01 -1.502787e-03 0.0
1.424202e-01 -1.515624e-03 0.0
1.378646e-01 -1.342900e-03 0.0
1.381900e-01 -1.354681e-03 0.0
1.336325e-01 -1.199203e-03 0.0
1.339581e-01 -1.209582e-03 0.0
1.293991e-01 -1.075849e-03 0.0
1.297248e-01 -1.084537e-03 0.0
1.251647e-01 -9.759044e-04 0.0
1.254905e-01 -9.827149e-04 0.0
1.209300e-01 -9.010358e-04 0.0
1.212558e-01 -9.058905e-04 0.0
1.166955e-01 -8.514109e-04 0.0
1.170212e-01 -8.543542e-04 0.0
1.121362e-01 -8.245637e-04 0.0
1.124618e-01 -8.256320e-04 0.0
1.079041e-01 -8.211537e-04 0.0
1.082296e-01 -8.207778e-04 0.0
1.036741e-01 -8.337373e-04 0.0
1.039994e-01 -8.323390e-04 0.0
9.912170e-02 -8.576832e-04 0.0
9.944677e-02 -8.558070e-04 0.0
9.489722e-02 -8.817462e-04 0.0
9.522211e-02 -8.799908e-04 0.0
9.067458e-02 -9.013751e-04 0.0
9.099936e-02 -9.001192e-04 0.0
8.612813e-02 -9.135684e-04 0.0
8.645286e-02 -9.130480e-04 0.0
8.158204e-02 -9.149163e-04 0.0
8.190675e-02 -9.151940e-04 0.0
7.736093e-02 -9.058032e-04 0.0
7.768562e-02 -9.068766e-04 0.0
7.281512e-02 -8.840981e-04 0.0
7.313985e-02 -8.860542e-04 0.0
6.826816e-02 -8.512968e-04 0.0
6.859301e-02 -8.539139e-04 0.0
6.404384e-02 -8.155500e-04 0.0
6.436887e-02 -8.183378e-04 0.0
5.949205e-02 -7.785227e-04 0.0
5.981726e-02 -7.809646e-04 0.0
5.493840e-02 -7.496487e-04 0.0
5.526369e-02 -7.513410e-04 0.0
5.038437e-02 -7.323760e-04 0.0
5.070963e-02 -7.332243e-04 0.0
4.583147e-02 -7.255314e-04 0.0
4.615662e-02 -7.257639e-04 0.0
4.095544e-02 -7.244533e-04 0.0
4.128045e-02 -7.244510e-04 0.0
3.640616e-02 -7.238959e-04 0.0
3.673106e-02 -7.240161e-04 0.0
3.185780e-02 -7.199090e-04 0.0
3.218267e-02 -7.203489e-04 0.0
2.730928e-02 -7.115278e-04 0.0
2.763419e-02 -7.122438e-04 0.0
2.243513e-02 -6.994946e-04 0.0
2.276010e-02 -7.003458e-04 0.0
1.788524e-02 -6.875633e-04 0.0
1.821025e-02 -6.883986e-04 0.0
1.300975e-02 -6.760316e-04 0.0
1.333480e-02 -6.767228e-04 0.0
8.133909e-03 -6.674498e-04 0.0
8.458965e-03 -6.679138e-04 0.0
3.258343e-03 -6.620957e-04 0.0
3.583358e-03 -6.623772e-04 0.0
-1.291363e-03 -6.584384e-04 0.0
-9.664171e-04 -6.587139e-04 0.0
-6.164986e-03 -6.528314e-04 0.0
-5.840104e-03 -6.533235e-04 0.0
-1.136305e-02 -6.420672e-04 0.0
-1.103816e-02 -6.428926e-04 0.0
-1.623693e-02 -6.280889e-04 0.0
-1.591197e-02 -6.290773e-04 0.0
-2.111175e-02 -6.134655e-04 0.0
-2.078675e-02 -6.144032e-04 0.0
-2.631165e-02 -5.993544e-04 0.0
-2.598668e-02 -6.002057e-04 0.0
-3.118562e-02 -5.859151e-04 0.0
-3.086072e-02 -5.868859e-04 0.0
-3.638382e-02 -5.679528e-04 0.0
-3.605893e-02 -5.692144e-04 0.0
-4.158265e-02 -5.460918e-04 0.0
-4.125768e-02 -5.475071e-04 0.0
-4.678286e-02 -5.244225e-04 0.0
-4.645782e-02 -5.256781e-04 0.0
-5.198343e-02 -5.066984e-04 0.0
-5.165842e-02 -5.076933e-04 0.0
-5.718285e-02 -4.913448e-04 0.0
-5.685793e-02 -4.923221e-04 0.0
-6.270606e-02 -4.728666e-04 0.0
-6.238118e-02 -4.740701e-04 0.0
-6.790417e-02 -4.515258e-04 0.0
-6.757928e-02 -4.529710e-04 0.0
-7.342723e-02 -4.248044e-04 0.0
-7.310234e-02 -4.264868e-04 0.0
-7.895065e-02 -3.944598e-04 0.0
-7.862572e-02 -3.963172e-04 0.0
-8.447499e-02 -3.626629e-04 0.0
-8.414999e-02 -3.645060e-04 0.0
-9.032539e-02 -3.315944e-04 0.0
-9.000035e-02 -3.331877e-04 0.0
-9.585133e-02 -3.074471e-04 0.0
-9.552626e-02 -3.087030e-04 0.0
-1.017030e-01 -2.891786e-04 0.0
-1.013779e-01 -2.899486e-04 0.0
-1.078811e-01 -2.818329e-04 0.0
-1.075559e-01 -2.818213e-04 0.0
-1.137357e-01 -2.916207e-04 0.0
-1.134104e-01 -2.905529e-04 0.0
-1.199172e-01 -3.259100e-04 0.0
-1.195918e-01 -3.233868e-04 0.0
-1.225204e-01 -3.492659e-04 0.0
-1.221950e-01 -3.460301e-04 0.0
-1.228458e-01 -3.525936e-04 0.0
-1.231712e-01 -3.560145e-04 0.0
-1.234966e-01 -3.595299e-04 0.0
-1.238221e-01 -3.631406e-04 0.0
-1.244729e-01 -3.706481e-04 0.0
-1.247984e-01 -3.745461e-04 0.0
-1.251238e-01 -3.785409e-04 0.0
-1.254493e-01 -3.826323e-04 0.0
-1.257747e-01 -3.868207e-04 0.0
-1.261001e-01 -3.911070e-04 0.0
-1.270764e-01 -4.045514e-04 0.0
-1.267510e-01 -3.999732e-04 0.0
-1.274019e-01 -4.092259e-04 0.0
-1.277273e-01 -4.139981e-04 0.0
-1.280528e-01 -4.188673e-04 0.0
-1.283782e-01 -4.238326e-04 0.0
-1.290291e-01 -4.340501e-04 0.0
-1.293545e-01 -4.393018e-04 0.0
-1.296799e-01 -4.446475e-04 0.0
-1.300053e-01 -4.500862e-04 0.0
-1.303307e-01 -4.556171e-04 0.0
-1.306562e-01 -4.612398e-04 0.0
-1.309816e-01 -4.669533e-04 0.0
-1.319578e-01 -4.846311e-04 0.0
-1.316324e-01 -4.786502e-04 0.0
-1.322832e-01 -4.906988e-04 0.0
-1.326085e-01 -4.968523e-04 0.0
-1.329339e-01 -5.030910e-04 0.0
-1.332593e-01 -5.094144e-04 0.0
-1.335847e-01 -5.158213e-04 0.0
-1.339100e-01 -5.223097e-04 0.0
-1.345608e-01 -5.355276e-04 0.0
-1.348861e-01 -5.422566e-04 0.0
-1.352115e-01 -5.490636e-04 0.0
-1.355368e-01 -5.559471e-04 0.0
-1.358621e-01 -5.629062e-04 0.0
-1.361875e-01 -5.699407e-04 0.0
-1.365128e-01 -5.770491e-04 0.0
-1.368381e-01 -5.842296e-04 0.0
-1.371634e-01 -5.914811e-04 0.0
-1.378140e-01 -6.061933e-04 0.0
-1.381393e-01 -6.136505e-04 0.0
-1.384646e-01 -6.211734e-04 0.0
-1.387899e-01 -6.287612e-04 0.0
-1.391152e-01 -6.364121e-04 0.0
-1.394404e-01 -6.441238e-04 0.0
-1.397657e-01 -6.518954e-04 0.0
-1.400910e-01 -6.597267e-04 0.0
-1.404162e-01 -6.676154e-04 0.0
-1.410667e-01 -6.835548e-04 0.0
-1.413919e-01 -6.916046e-04 0.0
-1.417171e-01 -6.997059e-04 0.0
-1.420423e-01 -7.078565e-04 0.0
-1.423675e-01 -7.160547e-04 0.0
-1.426927e-01 -7.242998e-04 0.0
-1.430179e-01 -7.325913e-04 0.0
-1.433431e-01 -7.409272e-04 0.0
-1.436683e-01 -7.493055e-04 0.0
-1.439935e-01 -7.577252e-04 0.0
-1.443186e-01 -7.661857e-04 0.0
-1.446438e-01 -7.746857e-04 0.0
-1.456192e-01 -8.004091e-04 0.0
-1.452941e-01 -7.917985e-04 0.0
-1.459444e-01 -8.090544e-04 0.0
-1.462695e-01 -8.177330e-04 0.0
-1.465946e-01 -8.264440e-04 0.0
-1.469198e-01 -8.351861e-04 0.0
-1.472449e-01 -8.439584e-04 0.0
-1.475700e-01 -8.527594e-04 0.0
-1.478951e-01 -8.615872e-04 0.0
-1.482202e-01 -8.704413e-04 0.0
-1.485453e-01 -8.793208e-04 0.0
-1.488704e-01 -8.882241e-04 0.0
-1.491954e-01 -8.971500e-04 0.0
-1.495205e-01 -9.060977e-04 0.0
-1.498456e-01 -9.150664e-04 0.0
-1.508208e-01 -9.420829e-04 0.0
-1.504957e-01 -9.330599e-04 0.0
-1.511458e-01 -9.511229e-04 0.0
-1.514709e-01 -9.601780e-04 0.0
-1.517959e-01 -9.692477e-04 0.0
-1.521210e-01 -9.783305e-04 0.0
-1.524460e-01 -9.874260e-04 0.0
-1.527710e-01 -9.965335e-04 0.0
-1.530961e-01 -1.005652e-03 0.0
-1.534211e-01 -1.014782e-03 0.0
-1.537461e-01 -1.023922e-03 0.0
-1.540711e-01 -1.033071e-03 0.0
-1.543962e-01 -1.042229e-03 0.0
-1.547212e-01 -1.051395e-03 0.0
-1.550462e-01 -1.060570e-03 0.0
-1.553712e-01 -1.069751e-03 0.0
-1.556962e-01 -1.078938e-03 0.0
-1.560212e-01 -1.088132e-03 0.0
-1.563462e-01 -1.097332e-03 0.0
-1.566712e-01 -1.106536e-03 0.0
-1.569962e-01 -1.115743e-03 0.0
-1.573212e-01 -1.124954e-03 0.0
-1.576462e-01 -1.134170e-03 0.0
-1.579712e-01 -1.143388e-03 0.0
-1.582962e-01 -1.152607e-03 0.0
-1.586212e-01 -1.161829e-03 0.0
-1.589462e-01 -1.171051e-03 0.0
-1.592711e-01 -1.180275e-03 0.0
-1.595961e-01 -1.189499e-03 0.0
-1.599211e-01 -1.198723e-03 0.0
-1.602461e-01 -1.207948e-03 0.0
-1.605711e-01 -1.217172e-03 0.0
-1.608960e-01 -1.226396e-03 0.0
-1.612210e-01 -1.235619e-03 0.0
-1.615460e-01 -1.244842e-03 0.0
-1.618710e-01 -1.254064e-03 0.0
-1.621960e-01 -1.263286e-03 0.0
-1.628459e-01 -1.281730e-03 0.0
-1.625209e-01 -1.272509e-03 0.0
-1.501707e-01 -9.240544e-04 0.0
-1.449689e-01 -7.832237e-04 0.0
-1.407414e-01 -6.755585e-04 0.0
-1.374887e-01 -5.988028e-04 0.0
-1.342354e-01 -5.288784e-04 0.0
-1.313070e-01 -4.727571e-04 0.0
-1.287036e-01 -4.288934e-04 0.0
-1.264256e-01 -3.954915e-04 0.0
-1.241475e-01 -3.668466e-04 0.0
-1.218696e-01 -3.428864e-04 0.0
-1.215441e-01 -3.398343e-04 0.0
-1.212187e-01 -3.368725e-04 0.0
-1.208933e-01 -3.339999e-04 0.0
-1.205679e-01 -3.312155e-04 0.0
-1.202425e-01 -3.285190e-04 0.0
-1.192664e-01 -3.209487e-04 0.0
-1.189410e-01 -3.185949e-04 0.0
-1.186156e-01 -3.163243e-04 0.0
-1.182903e-01 -3.141361e-04 0.0
-1.179649e-01 -3.120291e-04 0.0
-1.176396e-01 -3.100027e-04 0.0
-1.173142e-01 -3.080564e-04 0.0
-1.169889e-01 -3.061891e-04 0.0
-1.166635e-01 -3.043993e-04 0.0
-1.163382e-01 -3.026859e-04 0.0
-1.160129e-01 -3.010482e-04 0.0
-1.156875e-01 -2.994853e-04 0.0
-1.153622e-01 -2.979963e-04 0.0
-1.150369e-01 -2.965799e-04 0.0
-1.147116e-01 -2.952351e-04 0.0
-1.143863e-01 -2.939608e-04 0.0
-1.140610e-01 -2.927562e-04 0.0
-1.130851e-01 -2.895516e-04 0.0
-1.127598e-01 -2.886159e-04 0.0
-1.124345e-01 -2.877449e-04 0.0
-1.121092e-01 -2.869378e-04 0.0
-1.117840e-01 -2.861939e-04 0.0
-1.114587e-01 -2.855120e-04 0.0
-1.111335e-01 -2.848910e-04 0.0
-1.108082e-01 -2.843299e-04 0.0
-1.104829e-01 -2.838280e-04 0.0
-1.101577e-01 -2.833846e-04 0.0
-1.098325e-01 -2.829989e-04 0.0
-1.095072e-01 -2.826693e-04 0.0
-1.091820e-01 -2.823949e-04 0.0
-1.088568e-01 -2.821747e-04 0.0
-1.085315e-01 -2.820082e-04 0.0
-1.082063e-01 -2.818947e-04 0.0
-1.072307e-01 -2.818590e-04 0.0
-1.069055e-01 -2.819459e-04 0.0
-1.065803e-01 -2.820810e-04 0.0
-1.062551e-01 -2.822630e-04 0.0
-1.059300e-01 -2.824904e-04 0.0
-1.056048e-01 -2.827625e-04 0.0
-1.052796e-01 -2.830787e-04 0.0
-1.049544e-01 -2.834381e-04 0.0
-1.046293e-01 -2.838392e-04 0.0
-1.043041e-01 -2.842809e-04 0.0
-1.039790e-01 -2.847625e-04 0.0
-1.036538e-01 -2.852833e-04 0.0
-1.033287e-01 -2.858425e-04 0.0
-1.030035e-01 -2.864388e-04 0.0
-1.026784e-01 -2.870714e-04 0.0
-1.023533e-01 -2.877392e-04 0.0
-1.020281e-01 -2.884417e-04 0.0
-1.010528e-01 -2.907505e-04 0.0
-1.007277e-01 -2.915835e-04 0.0
-1.004025e-01 -2.924474e-04 0.0
-1.000774e-01 -2.933421e-04 0.0
-9.975233e-02 -2.942668e-04 0.0
-9.942723e-02 -2.952201e-04 0.0
-9.910214e-02 -2.962011e-04 0.0
-9.877704e-02 -2.972098e-04 0.0
-9.845195e-02 -2.982462e-04 0.0
-9.812686e-02 -2.993095e-04 0.0
-9.780178e-02 -3.003985e-04 0.0
-9.747670e-02 -3.015124e-04 0.0
-9.715162e-02 -3.026511e-04 0.0
-9.682654e-02 -3.038147e-04 0.0
-9.650147e-02 -3.050025e-04 0.0
-9.617640e-02 -3.062136e-04 0.0
-9.520119e-02 -3.099806e-04 0.0
-9.487613e-02 -3.112800e-04 0.0
-9.455107e-02 -3.126007e-04 0.0
-9.422601e-02 -3.139428e-04 0.0
-9.390095e-02 -3.153058e-04 0.0
-9.357589e-02 -3.166893e-04 0.0
-9.325084e-02 -3.180929e-04 0.0
-9.292578e-02 -3.195162e-04 0.0
-9.260073e-02 -3.209593e-04 0.0
-9.227568e-02 -3.224219e-04 0.0
-9.195063e-02 -3.239036e-04 0.0
-9.162558e-02 -3.254040e-04 0.0
-9.130053e-02 -3.269235e-04 0.0
-9.097548e-02 -3.284619e-04 0.0
-9.065044e-02 -3.300191e-04 0.0
-8.967531e-02 -3.347987e-04 0.0
-8.935027e-02 -3.364277e-04 0.0
-8.902524e-02 -3.380741e-04 0.0
-8.870020e-02 -3.397370e-04 0.0
-8.837517e-02 -3.414158e-04 0.0
-8.805014e-02 -3.431105e-04 0.0
-8.772511e-02 -3.448211e-04 0.0
-8.740008e-02 -3.465474e-04 0.0
-8.707506e-02 -3.482886e-04 0.0
-8.675004e-02 -3.500434e-04 0.0
-8.642502e-02 -3.518111e-04 0.0
-8.610001e-02 -3.535915e-04 0.0
-8.577500e-02 -3.553844e-04 0.0
-8.544999e-02 -3.571889e-04 0.0
-8.512498e-02 -3.590039e-04 0.0
-8.479998e-02 -3.608286e-04 0.0
-8.382500e-02 -3.663572e-04 0.0
-8.350002e-02 -3.682150e-04 0.0
-8.317504e-02 -3.700785e-04 0.0
-8.285006e-02 -3.719471e-04 0.0
-8.252508e-02 -3.738205e-04 0.0
-8.220012e-02 -3.756977e-04 0.0
-8.187515e-02 -3.775774e-04 0.0
-8.155019e-02 -3.794583e-04 0.0
-8.122523e-02 -3.813395e-04 0.0
-8.090028e-02 -3.832205e-04 0.0
-8.057533e-02 -3.851006e-04 0.0
-8.025039e-02 -3.869793e-04 0.0
-7.992545e-02 -3.888558e-04 0.0
-7.960051e-02 -3.907287e-04 0.0
-7.927558e-02 -3.925970e-04 0.0
-7.830080e-02 -3.981686e-04 0.0
-7.797588e-02 -4.000129e-04 0.0
-7.765096e-02 -4.018492e-04 0.0
-7.732604e-02 -4.036770e-04 0.0
-7.700113e-02 -4.054962e-04 0.0
-7.667622e-02 -4.073067e-04 0.0
-7.635132e-02 -4.091074e-04 0.0
-7.602641e-02 -4.108976e-04 0.0
-7.570151e-02 -4.126768e-04 0.0
-7.537661e-02 -4.144449e-04 0.0
-7.505171e-02 -4.162021e-04 0.0
-7.472681e-02 -4.179478e-04 0.0
-7.440191e-02 -4.196811e-04 0.0
-7.407702e-02 -4.214016e-04 0.0
-7.375213e-02 -4.231092e-04 0.0
-7.277745e-02 -4.281558e-04 0.0
-7.245256e-02 -4.298110e-04 0.0
-7.212768e-02 -4.314525e-04 0.0
-7.180279e-02 -4.330807e-04 0.0
-7.147790e-02 -4.346956e-04 0.0
-7.115301e-02 -4.362964e-04 0.0
-7.082813e-02 -4.378828e-04 0.0
-7.050324e-02 -4.394550e-04 0.0
-7.017836e-02 -4.410135e-04 0.0
-6.985347e-02 -4.425584e-04 0.0
-6.952859e-02 -4.440892e-04 0.0
-6.920370e-02 -4.456053e-04 0.0
-6.887882e-02 -4.471066e-04 0.0
-6.855393e-02 -4.485935e-04 0.0
-6.822905e-02 -4.500665e-04 0.0
-6.725440e-02 -4.544016e-04 0.0
-6.692952e-02 -4.558175e-04 0.0
-6.660463e-02 -4.572187e-04 0.0
-6.627975e-02 -4.586051e-04 0.0
-6.595487e-02 -4.599770e-04 0.0
-6.562999e-02 -4.613343e-04 0.0
-6.530510e-02 -4.626767e-04 0.0
-6.498022e-02 -4.640040e-04 0.0
-6.465534e-02 -4.653159e-04 0.0
-6.433046e-02 -4.666127e-04 0.0
-6.400558e-02 -4.678943e-04 0.0
-6.368070e-02 -4.691609e-04 0.0
-6.335582e-02 -4.704120e-04 0.0
-6.303094e-02 -4.716474e-04 0.0
-6.205629e-02 -4.752582e-04 0.0
-6.173141e-02 -4.764309e-04 0.0
-6.140653e-02 -4.775881e-04 0.0
-6.108164e-02 -4.787298e-04 0.0
-6.075676e-02 -4.798560e-04 0.0
-6.043187e-02 -4.809671e-04 0.0
-6.010698e-02 -4.820634e-04 0.0
-5.978209e-02 -4.831456e-04 0.0
-5.945719e-02 -4.842143e-04 0.0
-5.913230e-02 -4.852694e-04 0.0
-5.880740e-02 -4.863109e-04 0.0
-5.848249e-02 -4.873391e-04 0.0
-5.815759e-02 -4.883556e-04 0.0
-5.783268e-02 -4.893617e-04 0.0
-5.750776e-02 -4.903583e-04 0.0
-5.653300e-02 -4.932911e-04 0.0
-5.620806e-02 -4.942541e-04 0.0
-5.588313e-02 -4.952123e-04 0.0
-5.555818e-02 -4.961659e-04 0.0
-5.523324e-02 -4.971154e-04 0.0
-5.490828e-02 -4.980620e-04 0.0
-5.458332e-02 -4.990077e-04 0.0
-5.425836e-02 -4.999546e-04 0.0
-5.393338e-02 -5.009036e-04 0.0
-5.360841e-02 -5.018552e-04 0.0
-5.328342e-02 -5.028101e-04 0.0
-5.295843e-02 -5.037701e-04 0.0
-5.263344e-02 -5.047374e-04 0.0
-5.230844e-02 -5.057132e-04 0.0
-5.133341e-02 -5.086988e-04 0.0
-5.100838e-02 -5.097167e-04 0.0
-5.068336e-02 -5.107486e-04 0.0
-5.035833e-02 -5.117952e-04 0.0
-5.003329e-02 -5.128569e-04 0.0
-4.970826e-02 -5.139342e-04 0.0
-4.938322e-02 -5.150280e-04 0.0
-4.905818e-02 -5.161391e-04 0.0
-4.873313e-02 -5.172680e-04 0.0
-4.840809e-02 -5.184151e-04 0.0
-4.808304e-02 -5.195805e-04 0.0
-4.775800e-02 -5.207641e-04 0.0
-4.743295e-02 -5.219654e-04 0.0
-4.710790e-02 -5.231845e-04 0.0
-4.613278e-02 -5.269516e-04 0.0
-4.580774e-02 -5.282413e-04 0.0
-4.548270e-02 -5.295463e-04 0.0
-4.515767e-02 -5.308664e-04 0.0
-4.483264e-02 -5.322011e-04 0.0
-4.450762e-02 -5.335497e-04 0.0
-4.418260e-02 -5.349107e-04 0.0
-4.385759e-02 -5.362825e-04 0.0
-4.353258e-02 -5.376638e-04 0.0
-4.320758e-02 -5.390538e-04 0.0
-4.288258e-02 -5.404518e-04 0.0
-4.255759e-02 -5.418563e-04 0.0
-4.223260e-02 -5.432654e-04 0.0
-4.190762e-02 -5.446776e-04 0.0
-4.093272e-02 -5.489221e-04 0.0
-4.060776e-02 -5.503351e-04 0.0
-4.028281e-02 -5.517443e-04 0.0
-3.995787e-02 -5.531489e-04 0.0
-3.963293e-02 -5.545478e-04 0.0
-3.930800e-02 -5.559398e-04 0.0
-3.898307e-02 -5.573230e-04 0.0
-3.865815e-02 -5.586961e-04 0.0
-3.833323e-02 -5.600583e-04 0.0
-3.800832e-02 -5.614095e-04 0.0
-3.768341e-02 -5.627483e-04 0.0
-3.735851e-02 -5.640728e-04 0.0
-3.703361e-02 -5.653817e-04 0.0
-3.670871e-02 -5.666750e-04 0.0
-3.573404e-02 -5.704581e-04 0.0
-3.540915e-02 -5.716827e-04 0.0
-3.508427e-02 -5.728890e-04 0.0
-3.475938e-02 -5.740775e-04 0.0
-3.443450e-02 -5.752477e-04 0.0
-3.410962e-02 -5.763984e-04 0.0
-3.378473e-02 -5.775293e-04 0.0
-3.345985e-02 -5.786411e-04 0.0
-3.313497e-02 -5.797346e-04 0.0
-3.281008e-02 -5.808098e-04 0.0
-3.248519e-02 -5.818664e-04 0.0
-3.216031e-02 -5.829048e-04 0.0
-3.183541e-02 -5.839254e-04 0.0
-3.151052e-02 -5.849288e-04 0.0
-3.053582e-02 -5.878420e-04 0.0
-3.021091e-02 -5.887845e-04 0.0
-2.988600e-02 -5.897137e-04 0.0
-2.956108e-02 -5.906299e-04 0.0
-2.923616e-02 -5.915343e-04 0.0
-2.891123e-02 -5.924291e-04 0.0
-2.858630e-02 -5.933155e-04 0.0
-2.826137e-02 -5.941939e-04 0.0
-2.793643e-02 -5.950646e-04 0.0
-2.761148e-02 -5.959291e-04 0.0
-2.728653e-02 -5.967894e-04 0.0
-2.696157e-02 -5.976470e-04 0.0
-2.663661e-02 -5.985020e-04 0.0
-2.566170e-02 -6.010575e-04 0.0
-2.533672e-02 -6.019118e-04 0.0
-2.501174e-02 -6.027690e-04 0.0
-2.468676e-02 -6.036294e-04 0.0
-2.436177e-02 -6.044930e-04 0.0
-2.403677e-02 -6.053608e-04 0.0
-2.371178e-02 -6.062341e-04 0.0
-2.338678e-02 -6.071138e-04 0.0
-2.306178e-02 -6.080000e-04 0.0
-2.273678e-02 -6.088929e-04 0.0
-2.241177e-02 -6.097925e-04 0.0
-2.208677e-02 -6.106992e-04 0.0
-2.176176e-02 -6.116134e-04 0.0
-2.143676e-02 -6.125352e-04 0.0
-2.046175e-02 -6.153488e-04 0.0
-2.013674e-02 -6.163015e-04 0.0
-1.981174e-02 -6.172607e-04 0.0
-1.948674e-02 -6.182261e-04 0.0
-1.916175e-02 -6.191973e-04 0.0
-1.883675e-02 -6.201738e-04 0.0
-1.851176e-02 -6.211551e-04 0.0
-1.818677e-02 -6.221404e-04 0.0
-1.786179e-02 -6.231289e-04 0.0
-1.753681e-02 -6.241196e-04 0.0
-1.721184e-02 -6.251118e-04 0.0
-1.688686e-02 -6.261048e-04 0.0
-1.656190e-02 -6.270976e-04 0.0
-1.558702e-02 -6.300623e-04 0.0
-1.526207e-02 -6.310430e-04 0.0
-1.493713e-02 -6.320185e-04 0.0
-1.461219e-02 -6.329872e-04 0.0
-1.428726e-02 -6.339477e-04 0.0
-1.396233e-02 -6.348991e-04 0.0
-1.363740e-02 -6.358409e-04 0.0
-1.331248e-02 -6.367717e-04 0.0
-1.298757e-02 -6.376902e-04 0.0
-1.266266e-02 -6.385953e-04 0.0
-1.233775e-02 -6.394864e-04 0.0
-1.201285e-02 -6.403630e-04 0.0
-1.168795e-02 -6.412239e-04 0.0
-1.071328e-02 -6.436996e-04 0.0
-1.038839e-02 -6.444880e-04 0.0
-1.006351e-02 -6.452569e-04 0.0
-9.738628e-03 -6.460051e-04 0.0
-9.413749e-03 -6.467326e-04 0.0
-9.088871e-03 -6.474397e-04 0.0
-8.763994e-03 -6.481261e-04 0.0
-8.439119e-03 -6.487908e-04 0.0
-8.114245e-03 -6.494330e-04 0.0
-7.789370e-03 -6.500528e-04 0.0
-7.464495e-03 -6.506511e-04 0.0
-7.139620e-03 -6.512284e-04 0.0
-6.814744e-03 -6.517844e-04 0.0
-6.489866e-03 -6.523190e-04 0.0
-5.515218e-03 -6.537951e-04 0.0
-5.190329e-03 -6.542477e-04 0.0
-4.865439e-03 -6.546817e-04 0.0
-4.540545e-03 -6.550969e-04 0.0
-4.215648e-03 -6.554941e-04 0.0
-3.890746e-03 -6.558744e-04 0.0
-3.565840e-03 -6.562397e-04 0.0
-3.240929e-03 -6.565909e-04 0.0
-2.916014e-03 -6.569284e-04 0.0
-2.591094e-03 -6.572528e-04 0.0
-2.266169e-03 -6.575646e-04 0.0
-1.941238e-03 -6.578653e-04 0.0
-1.616303e-03 -6.581560e-04 0.0
-6.414669e-04 -6.589832e-04 0.0
-3.165115e-04 -6.592467e-04 0.0
8.449422e-06 -6.595051e-04 0.0
3.334161e-04 -6.597602e-04 0.0
6.583882e-04 -6.600137e-04 0.0
9.833652e-04 -6.602668e-04 0.0
1.308347e-03 -6.605197e-04 0.0
1.633334e-03 -6.607733e-04 0.0
1.958327e-03 -6.610290e-04 0.0
2.283325e-03 -6.612885e-04 0.0
2.608326e-03 -6.615526e-04 0.0
2.933332e-03 -6.618214e-04 0.0
3.908378e-03 -6.626673e-04 0.0
4.233400e-03 -6.629665e-04 0.0
4.558427e-03 -6.632745e-04 0.0
4.883457e-03 -6.635917e-04 0.0
5.208491e-03 -6.639195e-04 0.0
5.533529e-03 -6.642592e-04 0.0
5.858569e-03 -6.646114e-04 0.0
6.183611e-03 -6.649759e-04 0.0
6.508656e-03 -6.653529e-04 0.0
6.833703e-03 -6.657433e-04 0.0
7.158752e-03 -6.661480e-04 0.0
7.483802e-03 -6.665673e-04 0.0
7.808855e-03 -6.670012e-04 0.0
8.784022e-03 -6.683932e-04 0.0
9.109079e-03 -6.688880e-04 0.0
9.434137e-03 -6.693979e-04 0.0
9.759195e-03 -6.699232e-04 0.0
1.008425e-02 -6.704645e-04 0.0
1.040931e-02 -6.710220e-04 0.0
1.073437e-02 -6.715954e-04 0.0
1.105943e-02 -6.721841e-04 0.0
1.138448e-02 -6.727882e-04 0.0
1.170954e-02 -6.734078e-04 0.0
1.203459e-02 -6.740424e-04 0.0
1.235965e-02 -6.746914e-04 0.0
1.268470e-02 -6.753543e-04 0.0
1.365985e-02 -6.774274e-04 0.0
1.398489e-02 -6.781443e-04 0.0
1.430994e-02 -6.788732e-04 0.0
1.463498e-02 -6.796145e-04 0.0
1.496002e-02 -6.803680e-04 0.0
1.528505e-02 -6.811324e-04 0.0
1.561008e-02 -6.819063e-04 0.0
1.593511e-02 -6.826895e-04 0.0
1.626014e-02 -6.834821e-04 0.0
1.658517e-02 -6.842839e-04 0.0
1.691019e-02 -6.850940e-04 0.0
1.723521e-02 -6.859108e-04 0.0
1.756023e-02 -6.867339e-04 0.0
1.853526e-02 -6.892389e-04 0.0
1.886027e-02 -6.900833e-04 0.0
1.918527e-02 -6.909314e-04 0.0
1.951027e-02 -6.917829e-04 0.0
1.983527e-02 -6.926373e-04 0.0